 argument  1 = input.nw
  NWChem w/ OpenMP: maximum threads =    1



============================== echo of input deck ==============================
 echo
 start H2
 title "H2"

 memory total 24 gb

 geometry units bohr
 symmetry c1
        H  0.00000000  0.00000000  0.00000000
        H  0.00000000  1.10  0.00000000
 end

 basis
   * library cc-pVQZ
 end

 mcscf
   active  2
   actelec 2
   multiplicity 1
   maxiter 40
   vectors input H2.mos
   vectors output H2.mos
 end

 task mcscf

 scf
   vectors input H2.mos
   vectors output H2-1.10.mos
   noscf
 end

 tce
   2eorb
   2emet 13
   ccsd
   maxiter 300
   lshift 0.2
 end

# set tce:print_integrals T
# set tce:qorb 4
# set tce:qela 1
# set tce:qelb 1

 set tce:qducc T
 set tce:nactv 1
 set tce:nonhf T
 set tce:ducc_model 6

 set tce:printtol 0.02

 task tce
================================================================================


                                         
                                         


             Northwest Computational Chemistry Package (NWChem) 7.0.1
             --------------------------------------------------------


                    Environmental Molecular Sciences Laboratory
                       Pacific Northwest National Laboratory
                                Richland, WA 99352

                              Copyright (c) 1994-2020
                       Pacific Northwest National Laboratory
                            Battelle Memorial Institute

             NWChem is an open-source computational chemistry package
                        distributed under the terms of the
                      Educational Community License (ECL) 2.0
             A copy of the license is included with this distribution
                              in the LICENSE.TXT file

                                  ACKNOWLEDGMENT
                                  --------------

            This software and its documentation were developed at the
            EMSL at Pacific Northwest National Laboratory, a multiprogram
            national laboratory, operated for the U.S. Department of Energy
            by Battelle under Contract Number DE-AC05-76RL01830. Support
            for this work was provided by the Department of Energy Office
            of Biological and Environmental Research, Office of Basic
            Energy Sciences, and the Office of Advanced Scientific Computing.


           Job information
           ---------------

    hostname        = WE46210
    program         = /home/baum612/code/nwchem/bin/LINUX64/nwchem
    date            = Thu Nov  9 04:23:18 2023

    compiled        = Mon_Nov_06_10:06:57_2023
    source          = /home/baum612/code/nwchem
    nwchem branch   = 7.0.0
    nwchem revision = nwchem_on_git-4191-g39d87d64de
    ga revision     = 5.8.1
    use scalapack   = F
    input           = input.nw
    prefix          = H2.
    data base       = ./H2.db
    status          = startup
    nproc           =        1
    time left       =     -1s



           Memory information
           ------------------

    heap     =  805306362 doubles =   6144.0 Mbytes
    stack    =  805306367 doubles =   6144.0 Mbytes
    global   = 1610612736 doubles =  12288.0 Mbytes (distinct from heap & stack)
    total    = 3221225465 doubles =  24576.0 Mbytes
    verify   = yes
    hardfail = no 


           Directory information
           ---------------------

  0 permanent = .
  0 scratch   = .




                                NWChem Input Module
                                -------------------


                                        H2
                                        --
 Turning off AUTOSYM since
 SYMMETRY directive was detected!


          ------
          auto-z
          ------
  no constraints, skipping    0.0000000000000000     
  no constraints, skipping    0.0000000000000000     


                             Geometry "geometry" -> ""
                             -------------------------

 Output coordinates in a.u. (scale by  1.000000000 to convert to a.u.)

  No.       Tag          Charge          X              Y              Z
 ---- ---------------- ---------- -------------- -------------- --------------
    1 H                    1.0000     0.00000000    -0.55000000     0.00000000
    2 H                    1.0000     0.00000000     0.55000000     0.00000000

      Atomic Mass 
      ----------- 

      H                  1.007825


 Effective nuclear repulsion energy (a.u.)       0.9090909091

            Nuclear Dipole moment (a.u.) 
            ----------------------------
        X                 Y               Z
 ---------------- ---------------- ----------------
     0.0000000000     0.0000000000     0.0000000000



                                Z-matrix (autoz)
                                -------- 

 Units are Angstrom for bonds and degrees for angles

      Type          Name      I     J     K     L     M      Value
      ----------- --------  ----- ----- ----- ----- ----- ----------
    1 Stretch                  1     2                       0.58209


            XYZ format geometry
            -------------------
     2
 geometry
 H                     0.00000000    -0.29104749     0.00000000
 H                     0.00000000     0.29104749     0.00000000

 ==============================================================================
                                internuclear distances
 ------------------------------------------------------------------------------
       center one      |      center two      | atomic units |       a.u.
 ------------------------------------------------------------------------------
    2 H                |   1 H                |     1.10000  |     1.10000
 ------------------------------------------------------------------------------
                         number of included internuclear distances:          1
 ==============================================================================





 Summary of "ao basis" -> "" (cartesian)
 ------------------------------------------------------------------------------
       Tag                 Description            Shells   Functions and Types
 ---------------- ------------------------------  ------  ---------------------
 *                          cc-pVQZ                   on all atoms 


                      Basis "ao basis" -> "ao basis" (cartesian)
                      -----
  H (Hydrogen)
  ------------
            Exponent  Coefficients 
       -------------- ---------------------------------------------------------
  1 S  8.26400000E+01  0.002006
  1 S  1.24100000E+01  0.015343
  1 S  2.82400000E+00  0.075579

  2 S  7.97700000E-01  1.000000

  3 S  2.58100000E-01  1.000000

  4 S  8.98900000E-02  1.000000

  5 P  2.29200000E+00  1.000000

  6 P  8.38000000E-01  1.000000

  7 P  2.92000000E-01  1.000000

  8 D  2.06200000E+00  1.000000

  9 D  6.62000000E-01  1.000000

 10 F  1.39700000E+00  1.000000



 Summary of "ao basis" -> "ao basis" (cartesian)
 ------------------------------------------------------------------------------
       Tag                 Description            Shells   Functions and Types
 ---------------- ------------------------------  ------  ---------------------
 H                          cc-pVQZ                 10       35   4s3p2d1f



                            NWChem Direct MCSCF Module
                            --------------------------


                                        H2


     -----------------------------------
       Basis functions:             70
       Inactive shells:              0
       Active shells:                2
       Active electrons:             2
       Symmetry:                    a       
       Multiplicity:                 1
       Orbital rotations:          136
     -----------------------------------

     -----------------------------------
       E2 extrapolation:             F
       Conjugacy:                    T
       Micro CI relax:               T
       Canonical orbitals:           T
       Maximum iterations:          40
       Converge threshold:    1.00E-04
       Conjugacy resets:            20
       Initial levelshift:        0.10
     -----------------------------------

 Loading old vectors from job with title :

H2


   input molecular orbitals = ./H2.mos
  output molecular orbtials = ./H2.mos

       No. of determinants:             4


  Starting Orbital Energies
    -0.647789    -0.012601     0.202417     0.252837     0.470966     0.470966
     0.770364     0.783662     0.783662     1.022089     1.061708     1.176028
     1.707358     1.707358     1.971412     1.971412     2.112537     2.220961
     2.220961     2.581066     2.581066     2.614222     2.614222     2.688851
     2.882759     3.197346     3.484453     3.484453     3.507709     4.206014
     4.206014     4.696999     5.211563     5.211563     5.287254     5.721023
     5.721023     6.606888     6.606888     6.956696     6.956696     7.254932
     7.254932     7.325322     7.326398     7.326398     7.371706     7.686235
     7.686235     7.934652     7.934652     8.810379     8.810379     8.888671
     9.480772     9.717508     9.997410     9.997410    10.026401    10.026401
    10.239237    10.239237    10.619987    13.465798    13.645982    14.200511
    14.200511    17.483797    27.067849    30.171092

  Orbital Symmetry Irreps
a    a    a    a    a    a    a    a    a    a    a    a    a    a    a   
a    a    a    a    a    a    a    a    a    a    a    a    a    a    a   
a    a    a    a    a    a    a    a    a    a    a    a    a    a    a   
a    a    a    a    a    a    a    a    a    a    a    a    a    a    a   
a    a    a    a    a    a    a    a    a    a   

 Integral file          = ./H2.aoints.0
 Record size in doubles =  65536        No. of integs per rec  =  43688
 Max. records in memory =     99        Max. records in file   = 280226
 No. of bits per label  =      8        No. of bits per value  =     64


 #quartets = 2.216D+04 #integrals = 8.606D+05 #direct =  0.0% #cached =100.0%




          %%%%% MacroIteration   1 %%%%%


          Number of sigma calls:        2
                       o<<<<< (aa):             0.00
                       o<<<<< (bb):             0.00
                       o<<<<< (ab):             0.00
                       o<<<<< (total)           0.00
                       o<<<<< (aa) ff           0.00
                       o<<<<< (aa) gop          0.00
                       o<<<<< (aa) dot          0.00
                       o<<<<< (ab) str          0.00
                       o<<<<< (ab) gath         0.00
                       o<<<<< (ab) dotab        0.00
                       o<<<<< (ab) scat         0.00
                       o<<<<< (ab) sync         0.00
                       o<<<<< Density           0.00
                       o<<<<< Density one       0.00
                       o<<<<< Density two       0.00
                       o<<<<< Density ab        0.00
                       o<<<<< Spin adapt        0.00
                       o<<<<< Symm adapt        0.00

                       o<<<<< (ab) max sync:      0.00

           >>>| Valence CI:             -2.033738549808
           >>>| MCSCF energy:           -1.124647640717
           >>>| Gradient norm:          0.651362737D-01

                              ----- Line search ------

        step       energy         lsg     num-lsg   num-lsh   lsrat    time
      ------- ---------------- --------- --------- --------- ------- --------
       0.0000      -1.12464764 -3.48D-04  0.00D+00  0.00D+00 0.0D+00      0.2

          Number of sigma calls:        2
                       o<<<<< (aa):             0.00
                       o<<<<< (bb):             0.00
                       o<<<<< (ab):             0.00
                       o<<<<< (total)           0.00
                       o<<<<< (aa) ff           0.00
                       o<<<<< (aa) gop          0.00
                       o<<<<< (aa) dot          0.00
                       o<<<<< (ab) str          0.00
                       o<<<<< (ab) gath         0.00
                       o<<<<< (ab) dotab        0.00
                       o<<<<< (ab) scat         0.00
                       o<<<<< (ab) sync         0.00
                       o<<<<< Density           0.00
                       o<<<<< Density one       0.00
                       o<<<<< Density two       0.00
                       o<<<<< Density ab        0.00
                       o<<<<< Spin adapt        0.00
                       o<<<<< Symm adapt        0.00

                       o<<<<< (ab) max sync:      0.00
       1.0000      -1.12482320 -3.49D-06 -3.47D-06  3.44D-04 1.0D-02      0.3
     --- Orbitals canonicalized ---



          %%%%% MacroIteration   2 %%%%%


          Number of sigma calls:        2
                       o<<<<< (aa):             0.00
                       o<<<<< (bb):             0.00
                       o<<<<< (ab):             0.00
                       o<<<<< (total)           0.00
                       o<<<<< (aa) ff           0.00
                       o<<<<< (aa) gop          0.00
                       o<<<<< (aa) dot          0.00
                       o<<<<< (ab) str          0.00
                       o<<<<< (ab) gath         0.00
                       o<<<<< (ab) dotab        0.00
                       o<<<<< (ab) scat         0.00
                       o<<<<< (ab) sync         0.00
                       o<<<<< Density           0.00
                       o<<<<< Density one       0.00
                       o<<<<< Density two       0.00
                       o<<<<< Density ab        0.00
                       o<<<<< Spin adapt        0.00
                       o<<<<< Symm adapt        0.00

                       o<<<<< (ab) max sync:      0.00

           >>>| Valence CI:             -2.033914112439
           >>>| MCSCF energy:           -1.124823203348
           >>>| Gradient norm:          0.880222030D-03
     --- Conjugacy reset ---

                              ----- Line search ------

        step       energy         lsg     num-lsg   num-lsh   lsrat    time
      ------- ---------------- --------- --------- --------- ------- --------
       0.0000      -1.12482320 -5.42D-07  0.00D+00  0.00D+00 0.0D+00      0.4

          Number of sigma calls:        2
                       o<<<<< (aa):             0.00
                       o<<<<< (bb):             0.00
                       o<<<<< (ab):             0.00
                       o<<<<< (total)           0.00
                       o<<<<< (aa) ff           0.00
                       o<<<<< (aa) gop          0.00
                       o<<<<< (aa) dot          0.00
                       o<<<<< (ab) str          0.00
                       o<<<<< (ab) gath         0.00
                       o<<<<< (ab) dotab        0.00
                       o<<<<< (ab) scat         0.00
                       o<<<<< (ab) sync         0.00
                       o<<<<< Density           0.00
                       o<<<<< Density one       0.00
                       o<<<<< Density two       0.00
                       o<<<<< Density ab        0.00
                       o<<<<< Spin adapt        0.00
                       o<<<<< Symm adapt        0.00

                       o<<<<< (ab) max sync:      0.00
       1.0000      -1.12482349 -3.32D-08 -3.31D-08  5.09D-07 6.1D-02      0.4



          %%%%% MacroIteration   3 %%%%%


          Number of sigma calls:        1
                       o<<<<< (aa):             0.00
                       o<<<<< (bb):             0.00
                       o<<<<< (ab):             0.00
                       o<<<<< (total)           0.00
                       o<<<<< (aa) ff           0.00
                       o<<<<< (aa) gop          0.00
                       o<<<<< (aa) dot          0.00
                       o<<<<< (ab) str          0.00
                       o<<<<< (ab) gath         0.00
                       o<<<<< (ab) dotab        0.00
                       o<<<<< (ab) scat         0.00
                       o<<<<< (ab) sync         0.00
                       o<<<<< Density           0.00
                       o<<<<< Density one       0.00
                       o<<<<< Density two       0.00
                       o<<<<< Density ab        0.00
                       o<<<<< Spin adapt        0.00
                       o<<<<< Symm adapt        0.00

                       o<<<<< (ab) max sync:      0.00

           >>>| Valence CI:             -2.033914400007
           >>>| MCSCF energy:           -1.124823490916
           >>>| Gradient norm:          0.621381666D-04




     ==============================
            MCSCF Converged
     ==============================



          Canonical Eigenvalues

              1      
    1   -0.6575
    2   -0.0120
    3    0.2009
    4    0.2514
    5    0.4731
    6    0.4731
    7    0.7745
    8    0.7866
    9    0.7866
   10    1.0164
   11    1.0530
   12    1.1864
   13    1.7090
   14    1.7090
   15    1.9782
   16    1.9782
   17    2.1246
   18    2.2229
   19    2.2229
   20    2.5796
   21    2.5796
   22    2.6229
   23    2.6229
   24    2.7152
   25    2.8737
   26    3.1701
   27    3.5411
   28    3.5554
   29    3.5554
   30    4.2001
   31    4.2001
   32    4.7609
   33    5.3073
   34    5.3073
   35    5.3578
   36    5.7316
   37    5.7316
   38    6.6815
   39    6.6815
   40    6.9977
   41    6.9977
   42    7.1626
   43    7.1626
   44    7.2455
   45    7.3182
   46    7.3542
   47    7.3542
   48    7.5813
   49    7.5813
   50    7.9233
   51    7.9233
   52    8.8917
   53    8.9386
   54    8.9386
   55    9.5002
   56    9.5051
   57   10.0273
   58   10.0273
   59   10.1412
   60   10.1412
   61   10.4936
   62   10.4936
   63   10.8134
   64   13.6018
   65   13.7218
   66   14.4632
   67   14.4632
   68   17.7378
   69   27.1724
   70   31.5039


          Converged CI vector

   Index           Coefficient          Config. Occupation
         1          0.99638509          1  1
         4         -0.08495145          2  2

          Number of sigma calls:        1
                       o<<<<< (aa):             0.00
                       o<<<<< (bb):             0.00
                       o<<<<< (ab):             0.00
                       o<<<<< (total)           0.00
                       o<<<<< (aa) ff           0.00
                       o<<<<< (aa) gop          0.00
                       o<<<<< (aa) dot          0.00
                       o<<<<< (ab) str          0.00
                       o<<<<< (ab) gath         0.00
                       o<<<<< (ab) dotab        0.00
                       o<<<<< (ab) scat         0.00
                       o<<<<< (ab) sync         0.00
                       o<<<<< Density           0.00
                       o<<<<< Density one       0.00
                       o<<<<< Density two       0.00
                       o<<<<< Density ab        0.00
                       o<<<<< Spin adapt        0.00
                       o<<<<< Symm adapt        0.00

                       o<<<<< (ab) max sync:      0.00



          Natural orbital occupation numbers

              1      
    1    1.9856
    2    0.0144


          Number of sigma calls:        2
                       o<<<<< (aa):             0.00
                       o<<<<< (bb):             0.00
                       o<<<<< (ab):             0.00
                       o<<<<< (total)           0.00
                       o<<<<< (aa) ff           0.00
                       o<<<<< (aa) gop          0.00
                       o<<<<< (aa) dot          0.00
                       o<<<<< (ab) str          0.00
                       o<<<<< (ab) gath         0.00
                       o<<<<< (ab) dotab        0.00
                       o<<<<< (ab) scat         0.00
                       o<<<<< (ab) sync         0.00
                       o<<<<< Density           0.00
                       o<<<<< Density one       0.00
                       o<<<<< Density two       0.00
                       o<<<<< Density ab        0.00
                       o<<<<< Spin adapt        0.00
                       o<<<<< Symm adapt        0.00

                       o<<<<< (ab) max sync:      0.00


       Final MCSCF results 
       ------------------- 

       Total MCSCF energy =     -1.124823490916
            Gradient norm =      6.2D-05

    CPU time for solution =      0.5s
   Wall time for solution =      0.6s



                        Analysis of MCSCF natural orbitals
                        ----------------------------------

 Vector    1  Occ=1.985567D+00  E=-6.575090D-01  Symmetry=a
              MO Center=  2.7D-16,  1.7D-13,  1.2D-16, r^2= 6.1D-01
   Bfn.  Coefficient  Atom+Function         Bfn.  Coefficient  Atom+Function  
  ----- ------------  ---------------      ----- ------------  ---------------
     3      0.248263  1 H  s                 38      0.248263  2 H  s          
     2      0.197891  1 H  s                 37      0.197891  2 H  s          

 Vector    2  Occ=1.443350D-02  E=-1.195912D-02  Symmetry=a
              MO Center= -6.0D-15, -5.5D-13, -1.4D-15, r^2= 6.0D-01
   Bfn.  Coefficient  Atom+Function         Bfn.  Coefficient  Atom+Function  
  ----- ------------  ---------------      ----- ------------  ---------------
     3      0.635829  1 H  s                 38     -0.635829  2 H  s          
     2      0.561272  1 H  s                 37     -0.561272  2 H  s          
     9     -0.199022  1 H  py                44     -0.199022  2 H  py         

 Vector    3  Occ=0.000000D+00  E= 2.008931D-01  Symmetry=a
              MO Center= -7.4D-17, -3.3D-13, -9.7D-17, r^2= 4.6D+00
   Bfn.  Coefficient  Atom+Function         Bfn.  Coefficient  Atom+Function  
  ----- ------------  ---------------      ----- ------------  ---------------
     3      1.451101  1 H  s                 38      1.451101  2 H  s          
     4     -1.089722  1 H  s                 39     -1.089722  2 H  s          
    23     -0.262548  1 H  dyy               58     -0.262548  2 H  dyy        
     9      0.245173  1 H  py                44     -0.245173  2 H  py         
    20     -0.184136  1 H  dxx               25     -0.184136  1 H  dzz        

 Vector    4  Occ=0.000000D+00  E= 2.513904D-01  Symmetry=a
              MO Center=  1.1D-15,  2.9D-13,  4.8D-16, r^2= 5.9D+00
   Bfn.  Coefficient  Atom+Function         Bfn.  Coefficient  Atom+Function  
  ----- ------------  ---------------      ----- ------------  ---------------
     4      4.921305  1 H  s                 39     -4.921305  2 H  s          
     3     -3.624986  1 H  s                 38      3.624986  2 H  s          
     2      0.653082  1 H  s                 37     -0.653082  2 H  s          
    23      0.297176  1 H  dyy               58     -0.297176  2 H  dyy        
    12     -0.275014  1 H  py                47     -0.275014  2 H  py         

 Vector    5  Occ=0.000000D+00  E= 4.730618D-01  Symmetry=a
              MO Center= -2.8D-17, -1.1D-13, -6.0D-16, r^2= 1.7D+00
   Bfn.  Coefficient  Atom+Function         Bfn.  Coefficient  Atom+Function  
  ----- ------------  ---------------      ----- ------------  ---------------
    10      1.638926  1 H  pz                45      1.638926  2 H  pz         
    13     -0.806064  1 H  pz                48     -0.806064  2 H  pz         
    28     -0.672679  1 H  fxxz              33     -0.673386  1 H  fyyz       
    35     -0.672679  1 H  fzzz              63     -0.672679  2 H  fxxz       
    68     -0.673386  2 H  fyyz              70     -0.672679  2 H  fzzz       

 Vector    6  Occ=0.000000D+00  E= 4.730618D-01  Symmetry=a
              MO Center=  2.2D-17, -1.2D-13,  3.2D-17, r^2= 1.7D+00
   Bfn.  Coefficient  Atom+Function         Bfn.  Coefficient  Atom+Function  
  ----- ------------  ---------------      ----- ------------  ---------------
     8      1.638926  1 H  px                43      1.638926  2 H  px         
    11     -0.806064  1 H  px                46     -0.806064  2 H  px         
    26     -0.672679  1 H  fxxx              29     -0.673386  1 H  fxyy       
    31     -0.672679  1 H  fxzz              61     -0.672679  2 H  fxxx       
    64     -0.673386  2 H  fxyy              66     -0.672679  2 H  fxzz       

 Vector    7  Occ=0.000000D+00  E= 7.744569D-01  Symmetry=a
              MO Center= -2.3D-16,  9.4D-14,  1.1D-16, r^2= 2.5D+00
   Bfn.  Coefficient  Atom+Function         Bfn.  Coefficient  Atom+Function  
  ----- ------------  ---------------      ----- ------------  ---------------
    12      2.127102  1 H  py                47     -2.127102  2 H  py         
     9     -1.554911  1 H  py                44      1.554911  2 H  py         
     3     -1.296317  1 H  s                 38     -1.296317  2 H  s          
    32      0.743337  1 H  fyyy              67     -0.743337  2 H  fyyy       
    27      0.612217  1 H  fxxy              34      0.612217  1 H  fyzz       

 Vector    8  Occ=0.000000D+00  E= 7.865822D-01  Symmetry=a
              MO Center=  1.8D-15,  7.5D-14, -3.2D-15, r^2= 2.3D+00
   Bfn.  Coefficient  Atom+Function         Bfn.  Coefficient  Atom+Function  
  ----- ------------  ---------------      ----- ------------  ---------------
    13      2.378768  1 H  pz                48     -2.378768  2 H  pz         
    11     -1.414640  1 H  px                46      1.414640  2 H  px         
    10     -1.291894  1 H  pz                45      1.291894  2 H  pz         
    33      0.804929  1 H  fyyz              68     -0.804929  2 H  fyyz       
     8      0.768282  1 H  px                43     -0.768282  2 H  px         

 Vector    9  Occ=0.000000D+00  E= 7.865822D-01  Symmetry=a
              MO Center=  6.1D-15,  7.8D-14,  3.6D-15, r^2= 2.3D+00
   Bfn.  Coefficient  Atom+Function         Bfn.  Coefficient  Atom+Function  
  ----- ------------  ---------------      ----- ------------  ---------------
    11      2.378768  1 H  px                46     -2.378768  2 H  px         
    13      1.414640  1 H  pz                48     -1.414640  2 H  pz         
     8     -1.291894  1 H  px                43      1.291894  2 H  px         
    29      0.804929  1 H  fxyy              64     -0.804929  2 H  fxyy       
    10     -0.768282  1 H  pz                45      0.768282  2 H  pz         

 Vector   10  Occ=0.000000D+00  E= 1.016360D+00  Symmetry=a
              MO Center= -2.4D-16,  6.5D-12,  3.0D-16, r^2= 2.3D+00
   Bfn.  Coefficient  Atom+Function         Bfn.  Coefficient  Atom+Function  
  ----- ------------  ---------------      ----- ------------  ---------------
     3      3.118401  1 H  s                 38      3.118401  2 H  s          
     2     -1.108163  1 H  s                 37     -1.108163  2 H  s          
     4     -0.766916  1 H  s                 39     -0.766916  2 H  s          
    23     -0.716497  1 H  dyy               58     -0.716497  2 H  dyy        
    20     -0.712335  1 H  dxx               25     -0.712335  1 H  dzz        

 Vector   11  Occ=0.000000D+00  E= 1.052984D+00  Symmetry=a
              MO Center= -4.4D-15, -6.1D-12,  6.4D-17, r^2= 3.0D+00
   Bfn.  Coefficient  Atom+Function         Bfn.  Coefficient  Atom+Function  
  ----- ------------  ---------------      ----- ------------  ---------------
     3     51.483404  1 H  s                 38    -51.483404  2 H  s          
    12     16.386717  1 H  py                47     16.386717  2 H  py         
     2     11.522059  1 H  s                 37    -11.522059  2 H  s          
     9      6.591451  1 H  py                44      6.591451  2 H  py         
    23      2.800836  1 H  dyy               58     -2.800836  2 H  dyy        

 Vector   12  Occ=0.000000D+00  E= 1.186444D+00  Symmetry=a
              MO Center= -3.4D-15, -2.6D-13, -9.4D-16, r^2= 3.1D+00
   Bfn.  Coefficient  Atom+Function         Bfn.  Coefficient  Atom+Function  
  ----- ------------  ---------------      ----- ------------  ---------------
     3     12.381618  1 H  s                 38    -12.381618  2 H  s          
     2      8.829108  1 H  s                 37     -8.829108  2 H  s          
    12      6.601761  1 H  py                47      6.601761  2 H  py         
     9      3.477675  1 H  py                44      3.477675  2 H  py         
     4      2.893202  1 H  s                 39     -2.893202  2 H  s          


 Wrote Lagrangian and 1- and 2-particle density matrices to ./H2.mcpdm


     Multipole analysis of the density
     ---------------------------------

     L   x y z        total        nuclear
     -   - - -        -----        -------
     0   0 0 0     -0.000000      2.000000

     1   1 0 0     -0.000000      0.000000
     1   0 1 0     -0.000000      0.000000
     1   0 0 1     -0.000000      0.000000

     2   2 0 0     -1.334117      0.000000
     2   1 1 0      0.000000      0.000000
     2   1 0 1      0.000000      0.000000
     2   0 2 0     -1.054030      0.605000
     2   0 1 1     -0.000000      0.000000
     2   0 0 2     -1.334117      0.000000


  Mulliken analysis of the total density
  --------------------------------------

    Atom       Charge   Shell Charges
 -----------   ------   -------------------------------------------------------
    1 H    1     1.00   0.09  0.33  0.46  0.10  0.00  0.00  0.01  0.01  0.00  0.00
    2 H    1     1.00   0.09  0.33  0.46  0.10  0.00  0.00  0.01  0.01  0.00  0.00

    Mulliken analysis of the active space density
    ---------------------------------------------

    Atom       Charge   Shell Charges
 -----------   ------   -------------------------------------------------------
    1 H    1     1.00   0.09  0.33  0.46  0.10  0.00  0.00  0.01  0.01  0.00  0.00
    2 H    1     1.00   0.09  0.33  0.46  0.10  0.00  0.00  0.01  0.01  0.00  0.00

 Parallel integral file used      20 records with       0 large values


 Task  times  cpu:        0.6s     wall:        0.7s


                                NWChem Input Module
                                -------------------


                                 NWChem SCF Module
                                 -----------------


                                        H2



  ao basis        = "ao basis"
  functions       =    70
  atoms           =     2
  closed shells   =     1
  open shells     =     0
  charge          =   0.00
  wavefunction    = RHF 
  input vectors   = ./H2.mos
  output vectors  = ./H2-1.10.mos
  use symmetry    = F
  symmetry adapt  = F


 Summary of "ao basis" -> "ao basis" (cartesian)
 ------------------------------------------------------------------------------
       Tag                 Description            Shells   Functions and Types
 ---------------- ------------------------------  ------  ---------------------
 H                          cc-pVQZ                 10       35   4s3p2d1f



 Forming initial guess at       0.7s


 Loading old vectors from job with title :

H2


 Starting SCF solution at       0.7s



 ----------------------------------------------
         Quadratically convergent ROHF

 Convergence threshold     :          1.000E-04
 Maximum no. of iterations :           30
 Final Fock-matrix accuracy:          1.000E-07
 ----------------------------------------------


 Integral file          = ./H2.aoints.0
 Record size in doubles =  65536        No. of integs per rec  =  43688
 Max. records in memory =     99        Max. records in file   = 280277
 No. of bits per label  =      8        No. of bits per value  =     64


 #quartets = 2.216D+04 #integrals = 8.606D+05 #direct =  0.0% #cached =100.0%



       Final RHF  results 
       ------------------ 

         Total SCF energy =     -1.110093226589
      One-electron energy =     -2.743324915662
      Two-electron energy =      0.724140779983
 Nuclear repulsion energy =      0.909090909091

        Time for solution =      0.0s


             Final eigenvalues
             -----------------

              1      
    1   -0.6575
    2   -0.0120
    3    0.2009
    4    0.2514
    5    0.4731
    6    0.4731
    7    0.7745
    8    0.7866
    9    0.7866
   10    1.0164
   11    1.0530

                       ROHF Final Molecular Orbital Analysis
                       -------------------------------------

 Vector    1  Occ=2.000000D+00  E=-6.575090D-01
              MO Center=  2.7D-16,  1.7D-13,  1.2D-16, r^2= 6.1D-01
   Bfn.  Coefficient  Atom+Function         Bfn.  Coefficient  Atom+Function  
  ----- ------------  ---------------      ----- ------------  ---------------
     3      0.248263  1 H  s                 38      0.248263  2 H  s          
     2      0.197891  1 H  s                 37      0.197891  2 H  s          

 Vector    2  Occ=0.000000D+00  E=-1.195912D-02
              MO Center= -6.0D-15, -5.5D-13, -1.4D-15, r^2= 6.0D-01
   Bfn.  Coefficient  Atom+Function         Bfn.  Coefficient  Atom+Function  
  ----- ------------  ---------------      ----- ------------  ---------------
     3      0.635829  1 H  s                 38     -0.635829  2 H  s          
     2      0.561272  1 H  s                 37     -0.561272  2 H  s          
     9     -0.199022  1 H  py                44     -0.199022  2 H  py         

 Vector    3  Occ=0.000000D+00  E= 2.008931D-01
              MO Center= -7.4D-17, -3.3D-13, -9.7D-17, r^2= 4.6D+00
   Bfn.  Coefficient  Atom+Function         Bfn.  Coefficient  Atom+Function  
  ----- ------------  ---------------      ----- ------------  ---------------
     3      1.451101  1 H  s                 38      1.451101  2 H  s          
     4     -1.089722  1 H  s                 39     -1.089722  2 H  s          
    23     -0.262548  1 H  dyy               58     -0.262548  2 H  dyy        
     9      0.245173  1 H  py                44     -0.245173  2 H  py         
    20     -0.184136  1 H  dxx               25     -0.184136  1 H  dzz        

 Vector    4  Occ=0.000000D+00  E= 2.513904D-01
              MO Center=  1.1D-15,  3.0D-13,  4.8D-16, r^2= 5.9D+00
   Bfn.  Coefficient  Atom+Function         Bfn.  Coefficient  Atom+Function  
  ----- ------------  ---------------      ----- ------------  ---------------
     4      4.921305  1 H  s                 39     -4.921305  2 H  s          
     3     -3.624986  1 H  s                 38      3.624986  2 H  s          
     2      0.653082  1 H  s                 37     -0.653082  2 H  s          
    23      0.297176  1 H  dyy               58     -0.297176  2 H  dyy        
    12     -0.275014  1 H  py                47     -0.275014  2 H  py         

 Vector    5  Occ=0.000000D+00  E= 4.730618D-01
              MO Center= -2.8D-17, -1.1D-13, -6.0D-16, r^2= 1.7D+00
   Bfn.  Coefficient  Atom+Function         Bfn.  Coefficient  Atom+Function  
  ----- ------------  ---------------      ----- ------------  ---------------
    10      1.638926  1 H  pz                45      1.638926  2 H  pz         
    13     -0.806064  1 H  pz                48     -0.806064  2 H  pz         
    28     -0.672679  1 H  fxxz              33     -0.673386  1 H  fyyz       
    35     -0.672679  1 H  fzzz              63     -0.672679  2 H  fxxz       
    68     -0.673386  2 H  fyyz              70     -0.672679  2 H  fzzz       

 Vector    6  Occ=0.000000D+00  E= 4.730618D-01
              MO Center=  2.2D-17, -1.2D-13,  3.2D-17, r^2= 1.7D+00
   Bfn.  Coefficient  Atom+Function         Bfn.  Coefficient  Atom+Function  
  ----- ------------  ---------------      ----- ------------  ---------------
     8      1.638926  1 H  px                43      1.638926  2 H  px         
    11     -0.806064  1 H  px                46     -0.806064  2 H  px         
    26     -0.672679  1 H  fxxx              29     -0.673386  1 H  fxyy       
    31     -0.672679  1 H  fxzz              61     -0.672679  2 H  fxxx       
    64     -0.673386  2 H  fxyy              66     -0.672679  2 H  fxzz       

 Vector    7  Occ=0.000000D+00  E= 7.744569D-01
              MO Center= -2.3D-16,  9.5D-14,  1.1D-16, r^2= 2.5D+00
   Bfn.  Coefficient  Atom+Function         Bfn.  Coefficient  Atom+Function  
  ----- ------------  ---------------      ----- ------------  ---------------
    12      2.127102  1 H  py                47     -2.127102  2 H  py         
     9     -1.554911  1 H  py                44      1.554911  2 H  py         
     3     -1.296317  1 H  s                 38     -1.296317  2 H  s          
    32      0.743337  1 H  fyyy              67     -0.743337  2 H  fyyy       
    27      0.612217  1 H  fxxy              34      0.612217  1 H  fyzz       

 Vector    8  Occ=0.000000D+00  E= 7.865822D-01
              MO Center=  1.8D-15,  7.8D-14, -3.2D-15, r^2= 2.3D+00
   Bfn.  Coefficient  Atom+Function         Bfn.  Coefficient  Atom+Function  
  ----- ------------  ---------------      ----- ------------  ---------------
    13      2.378768  1 H  pz                48     -2.378768  2 H  pz         
    11     -1.414640  1 H  px                46      1.414640  2 H  px         
    10     -1.291894  1 H  pz                45      1.291894  2 H  pz         
    33      0.804929  1 H  fyyz              68     -0.804929  2 H  fyyz       
     8      0.768282  1 H  px                43     -0.768282  2 H  px         

 Vector    9  Occ=0.000000D+00  E= 7.865822D-01
              MO Center=  6.1D-15,  7.8D-14,  3.6D-15, r^2= 2.3D+00
   Bfn.  Coefficient  Atom+Function         Bfn.  Coefficient  Atom+Function  
  ----- ------------  ---------------      ----- ------------  ---------------
    11      2.378768  1 H  px                46     -2.378768  2 H  px         
    13      1.414640  1 H  pz                48     -1.414640  2 H  pz         
     8     -1.291894  1 H  px                43      1.291894  2 H  px         
    29      0.804929  1 H  fxyy              64     -0.804929  2 H  fxyy       
    10     -0.768282  1 H  pz                45      0.768282  2 H  pz         

 Vector   10  Occ=0.000000D+00  E= 1.016360D+00
              MO Center= -2.4D-16,  6.5D-12,  3.0D-16, r^2= 2.3D+00
   Bfn.  Coefficient  Atom+Function         Bfn.  Coefficient  Atom+Function  
  ----- ------------  ---------------      ----- ------------  ---------------
     3      3.118401  1 H  s                 38      3.118401  2 H  s          
     2     -1.108163  1 H  s                 37     -1.108163  2 H  s          
     4     -0.766916  1 H  s                 39     -0.766916  2 H  s          
    23     -0.716497  1 H  dyy               58     -0.716497  2 H  dyy        
    20     -0.712335  1 H  dxx               25     -0.712335  1 H  dzz        

 Vector   11  Occ=0.000000D+00  E= 1.052984D+00
              MO Center= -4.4D-15, -6.5D-12,  6.4D-17, r^2= 3.0D+00
   Bfn.  Coefficient  Atom+Function         Bfn.  Coefficient  Atom+Function  
  ----- ------------  ---------------      ----- ------------  ---------------
     3     51.483404  1 H  s                 38    -51.483404  2 H  s          
    12     16.386717  1 H  py                47     16.386717  2 H  py         
     2     11.522059  1 H  s                 37    -11.522059  2 H  s          
     9      6.591451  1 H  py                44      6.591451  2 H  py         
    23      2.800836  1 H  dyy               58     -2.800836  2 H  dyy        


 center of mass
 --------------
 x =   0.00000000 y =   0.00000000 z =   0.00000000

 moments of inertia (a.u.)
 ------------------
           0.609734125000           0.000000000000           0.000000000000
           0.000000000000           0.000000000000           0.000000000000
           0.000000000000           0.000000000000           0.609734125000

  Mulliken analysis of the total density
  --------------------------------------

    Atom       Charge   Shell Charges
 -----------   ------   -------------------------------------------------------
    1 H    1     1.00   0.09  0.33  0.46  0.10  0.00  0.00  0.01  0.01  0.00  0.00
    2 H    1     1.00   0.09  0.33  0.46  0.10  0.00  0.00  0.01  0.01  0.00  0.00

       Multipole analysis of the density wrt the origin
       ------------------------------------------------

     L   x y z        total         open         nuclear
     -   - - -        -----         ----         -------
     0   0 0 0     -0.000000      0.000000      2.000000

     1   1 0 0     -0.000000      0.000000      0.000000
     1   0 1 0     -0.000000      0.000000      0.000000
     1   0 0 1     -0.000000      0.000000      0.000000

     2   2 0 0     -1.338095      0.000000      0.000000
     2   1 1 0      0.000000      0.000000      0.000000
     2   1 0 1      0.000000      0.000000      0.000000
     2   0 2 0     -1.046624      0.000000      0.605000
     2   0 1 1     -0.000000      0.000000      0.000000
     2   0 0 2     -1.338095      0.000000      0.000000


 Parallel integral file used      20 records with       0 large values

                   NWChem Extensible Many-Electron Theory Module
                   ---------------------------------------------

              ======================================================
                   This portion of the program was automatically
                  generated by a Tensor Contraction Engine (TCE).
                  The development of this portion of the program
                 and TCE was supported by US Department of Energy,
                Office of Science, Office of Basic Energy Science.
                      TCE is a product of Battelle and PNNL.
              Please cite: S.Hirata, J.Phys.Chem.A 107, 9887 (2003).
              ======================================================

                                        H2


            General Information
            -------------------
      Number of processors :     1
         Wavefunction type : Restricted Hartree-Fock
          No. of electrons :     2
           Alpha electrons :     1
            Beta electrons :     1
           No. of orbitals :   140
            Alpha orbitals :    70
             Beta orbitals :    70
        Alpha frozen cores :     0
         Beta frozen cores :     0
     Alpha frozen virtuals :     0
      Beta frozen virtuals :     0
         Spin multiplicity : singlet 
    Number of AO functions :    70
       Number of AO shells :    20
        Use of symmetry is : off
      Symmetry adaption is : off
         Schwarz screening : 0.10D-09

          Correlation Information
          -----------------------
          Calculation type : Coupled-cluster singles & doubles                           
   Perturbative correction : none                                                        
            Max iterations :      300
        Residual threshold : 0.10D-06
     T(0) DIIS level shift : 0.20D+00
     L(0) DIIS level shift : 0.00D+00
     T(1) DIIS level shift : 0.00D+00
     L(1) DIIS level shift : 0.00D+00
     T(R) DIIS level shift : 0.00D+00
     T(I) DIIS level shift : 0.00D+00
   CC-T/L Amplitude update :  5-th order DIIS
                I/O scheme : Global Array Library
        L-threshold :  0.10D-06
        EOM-threshold :  0.10D-06
 no EOMCCSD initial starts read in
 TCE RESTART OPTIONS
 READ_INT:   F
 WRITE_INT:  F
 READ_TA:    F
 WRITE_TA:   F
 READ_XA:    F
 WRITE_XA:   F
 READ_IN3:   F
 WRITE_IN3:  F
 SLICE:      F
 D4D5:       F
 quantumc:   F
 qrotation:  F
 pwtce:      F
 qducc:      T
 nacto:                         0
 nrotv:                         0
 nrot:                          0

            Memory Information
            ------------------
          Available GA space size is    1610607836 doubles
          Available MA space size is    1610610644 doubles

 Maximum block size        32 doubles

 tile_dim =     23

 Block   Spin    Irrep     Size     Offset   Alpha
 -------------------------------------------------
   1    alpha     a      1 doubles       0       1
   2    beta      a      1 doubles       1       1
   3    alpha     a     23 doubles       2       3
   4    alpha     a     23 doubles      25       4
   5    alpha     a     23 doubles      48       5
   6    beta      a     23 doubles      71       3
   7    beta      a     23 doubles      94       4
   8    beta      a     23 doubles     117       5

 Global array virtual files algorithm will be used

 Parallel file system coherency ......... OK

 Integral file          = ./H2.aoints.0
 Record size in doubles =  65536        No. of integs per rec  =  43688
 Max. records in memory =     99        Max. records in file   = 280277
 No. of bits per label  =      8        No. of bits per value  =     64


 #quartets = 2.216D+04 #integrals = 8.606D+05 #direct =  0.0% #cached =100.0%


 Fock matrix recomputed
 1-e file size   =             4900
 1-e file name   = ./H2.f1
 Cpu & wall time / sec            0.0            0.1
 4-electron integrals stored in orbital form

 v2    file size   =          6102085
 4-index algorithm nr.  13 is used
 imaxsize =       30
 imaxsize ichop =        0
 Cpu & wall time / sec            1.9            1.9
 T1-number-of-tasks                    3

 t1 file size   =               69
 t1 file name   = ./H2.t1
 t1 file handle =       -998
 T2-number-of-boxes                   15

 t2 file size   =             7935
 t2 file name   = ./H2.t2
 t2 file handle =       -996
CCSD iterations
 ---------------------------------------------------------
 Iter          Residuum       Correlation     Cpu    Wall 
 ---------------------------------------------------------
NEW TASK SCHEDULING
CCSD_T1_NTS --- OK
CCSD_T2_NTS --- OK
    1   0.2178216917165  -0.0479196909175     0.1     0.1
    2   0.1126521789775  -0.0314265663776     0.1     0.1
    3   0.0594638321069  -0.0420076159820     0.1     0.1
    4   0.0299174841935  -0.0372992374854     0.1     0.1
    5   0.0158182463552  -0.0400209050897     0.1     0.1
 MICROCYCLE DIIS UPDATE:                    5                    5
    6   0.0002574013823  -0.0392146715647     0.1     0.1
    7   0.0000992167102  -0.0392149610442     0.1     0.1
    8   0.0000475781058  -0.0392140118152     0.1     0.1
    9   0.0000246193563  -0.0392146031029     0.1     0.1
   10   0.0000120919603  -0.0392145471653     0.1     0.1
 MICROCYCLE DIIS UPDATE:                   10                    5
   11   0.0000011932302  -0.0392148298285     0.1     0.1
   12   0.0000003354725  -0.0392148570280     0.1     0.1
   13   0.0000001241764  -0.0392148727964     0.1     0.1
   14   0.0000000461274  -0.0392148761230     0.1     0.1
 -----------------------------------------------------------------
 Iterations converged
 CCSD correlation energy / hartree =        -0.039214876123022
 CCSD total energy / hartree       =        -1.149308102711626

 Singles contributions

 Doubles contributions
     2a   (alpha)     2a   (beta ) ---     1a   (alpha)     1a   (beta )       -0.0781542911
     3a   (alpha)     3a   (beta ) ---     1a   (alpha)     1a   (beta )       -0.0237245901
     3a   (alpha)    10a   (beta ) ---     1a   (alpha)     1a   (beta )        0.0203220531
     5a   (alpha)     5a   (beta ) ---     1a   (alpha)     1a   (beta )       -0.0294807592
     6a   (alpha)     6a   (beta ) ---     1a   (alpha)     1a   (beta )       -0.0294807592
    10a   (alpha)     3a   (beta ) ---     1a   (alpha)     1a   (beta )        0.0203220531
    10a   (alpha)    10a   (beta ) ---     1a   (alpha)     1a   (beta )       -0.0210743708
 Ground state specification:
 exp(T)|Ref>~(1+T)|Ref>
 ------- a(p)+/a(q) strings ----------

 singles norm

 doubles norm

 Reference string
   1.0000000000000000      :(1a)+ (1b)+ |0>

 Singles strings

 Doubles strings
 -------------------------------------
 enrep_tce =   0.90909090909090884     
  EHF(total)         =        -1.11009323
  Shift (HFtot-HFA)  =         0.00000000
 ALL OCCUPIED ORBITALS ARE ACTIVE IN DUCC --> NO SHIFT
 Number of active orbitals                    2
 Number of active alpha electrons                    1
 Number of active beta electrons                    1
  nos                     2
  nvs                   138
 noas                     1
 nobs                     1
 nvas                    69
 nvbs                    69
 nactv                     1
 DUCC MODEL =                     6
 NONHF =  T
 F-T1 correlation    =   -7.2172697315761190E-005
 V-T1-T1 correlation =    6.1543559059196782E-007
 V-T2 correlation    =   -3.9143318861296489E-002
 Total correlation   =   -3.9214876123021658E-002
 F-T1(Ext) correlation         =   -7.2172697315761190E-005
 V-T1(Ext)-T1(Ext) correlation =    6.1543559059196782E-007
 V-T2(Ext) correlation         =   -2.5640644287227579E-002
 Total Ext correlation         =   -2.5712201548952748E-002
1-BODY TIME =   26.050 SECONDS.
  HHHH TIME =   24.665 SECONDS.
  PPPP TIME =    0.856 SECONDS.
  HHHP TIME =    0.446 SECONDS.
  PPPH TIME =    0.846 SECONDS.
  HPHP TIME =    0.670 SECONDS.
  HHPP TIME =    0.624 SECONDS.
 ONE-BODY UNITARY CHECK
 TWO-BODY UNITARY CHECK
 TWO-BODY ANTISYMMETRY CHECK
 TRANSFORMED ~FOCK~ MATRIX
    1    1        -0.6744712522
    2    2         0.8637018479
 begin_one_electron_integrals
    1    1        -1.3717144568
    2    2        -0.3780524053
 end_one_electron_integrals
 begin_two_electron_integrals
    1    1    1    1        0.6972432045
    1    2    1    2        0.1595859592
    1    1    2    2        0.7068387437
    1    2    2    1        0.1719232343
    2    1    1    2        0.1719232343
    2    2    1    1        0.7068387437
    2    1    2    1        0.1595859592
    2    2    2    2        0.7495120332
 end_two_electron_integrals

 Parallel integral file used      20 records with       0 large values


 Task  times  cpu:       85.2s     wall:       87.4s


                                NWChem Input Module
                                -------------------


 Summary of allocated global arrays
-----------------------------------
  No active global arrays


MA_summarize_allocated_blocks: starting scan ...
MA_summarize_allocated_blocks: scan completed: 0 heap blocks, 0 stack blocks
MA usage statistics:

	allocation statistics:
					      heap	     stack
					      ----	     -----
	current number of blocks	         0	         0
	maximum number of blocks	        18	        42
	current total bytes		         0	         0
	maximum total bytes		  51983048	9994007128
	maximum total K-bytes		     51984	   9994008
	maximum total M-bytes		        52	      9995


                                     CITATION
                                     --------
                Please cite the following reference when publishing
                           results obtained with NWChem:

          E. Apra, E. J. Bylaska, W. A. de Jong, N. Govind, K. Kowalski,
       T. P. Straatsma, M. Valiev, H. J. J. van Dam, Y. Alexeev, J. Anchell,
       V. Anisimov, F. W. Aquino, R. Atta-Fynn, J. Autschbach, N. P. Bauman,
     J. C. Becca, D. E. Bernholdt, K. Bhaskaran-Nair, S. Bogatko, P. Borowski,
         J. Boschen, J. Brabec, A. Bruner, E. Cauet, Y. Chen, G. N. Chuev,
      C. J. Cramer, J. Daily, M. J. O. Deegan, T. H. Dunning Jr., M. Dupuis,
   K. G. Dyall, G. I. Fann, S. A. Fischer, A. Fonari, H. Fruchtl, L. Gagliardi,
      J. Garza, N. Gawande, S. Ghosh, K. Glaesemann, A. W. Gotz, J. Hammond,
       V. Helms, E. D. Hermes, K. Hirao, S. Hirata, M. Jacquelin, L. Jensen,
   B. G. Johnson, H. Jonsson, R. A. Kendall, M. Klemm, R. Kobayashi, V. Konkov,
      S. Krishnamoorthy, M. Krishnan, Z. Lin, R. D. Lins, R. J. Littlefield,
      A. J. Logsdail, K. Lopata, W. Ma, A. V. Marenich, J. Martin del Campo,
   D. Mejia-Rodriguez, J. E. Moore, J. M. Mullin, T. Nakajima, D. R. Nascimento,
    J. A. Nichols, P. J. Nichols, J. Nieplocha, A. Otero-de-la-Roza, B. Palmer,
    A. Panyala, T. Pirojsirikul, B. Peng, R. Peverati, J. Pittner, L. Pollack,
   R. M. Richard, P. Sadayappan, G. C. Schatz, W. A. Shelton, D. W. Silverstein,
   D. M. A. Smith, T. A. Soares, D. Song, M. Swart, H. L. Taylor, G. S. Thomas,
            V. Tipparaju, D. G. Truhlar, K. Tsemekhman, T. Van Voorhis,
      A. Vazquez-Mayagoitia, P. Verma, O. Villa, A. Vishnu, K. D. Vogiatzis,
        D. Wang, J. H. Weare, M. J. Williamson, T. L. Windus, K. Wolinski,
        A. T. Wong, Q. Wu, C. Yang, Q. Yu, M. Zacharias, Z. Zhang, Y. Zhao,
                                and R. J. Harrison
                        "NWChem: Past, present, and future
                         J. Chem. Phys. 152, 184102 (2020)
                               doi:10.1063/5.0004997

                                      AUTHORS
                                      -------
  E. Apra, E. J. Bylaska, N. Govind, K. Kowalski, M. Valiev, D. Mejia-Rodriguez,
       A. Kunitsa, N. P. Bauman, A. Panyala, W. A. de Jong, T. P. Straatsma,
        H. J. J. van Dam, D. Wang, T. L. Windus, J. Hammond, J. Autschbach,
    K. Bhaskaran-Nair, J. Brabec, K. Lopata, S. A. Fischer, S. Krishnamoorthy,
     M. Jacquelin, W. Ma, M. Klemm, O. Villa, Y. Chen, V. Anisimov, F. Aquino,
    S. Hirata, M. T. Hackler, Eric Hermes, L. Jensen, J. E. Moore, J. C. Becca,
      V. Konjkov, T. Risthaus, M. Malagoli, A. Marenich, A. Otero-de-la-Roza,
        J. Mullin, P. Nichols, R. Peverati, J. Pittner, Y. Zhao, P.-D. Fan,
        A. Fonari, M. J. Williamson, R. J. Harrison, J. R. Rehr, M. Dupuis,
     D. Silverstein, D. M. A. Smith, J. Nieplocha, V. Tipparaju, M. Krishnan,
     B. E. Van Kuiken, A. Vazquez-Mayagoitia, M. Swart, Q. Wu, T. Van Voorhis,
     A. A. Auer, M. Nooijen, L. D. Crosby, E. Brown, G. Cisneros, G. I. Fann,
   H. Fruchtl, J. Garza, K. Hirao, R. A. Kendall, J. A. Nichols, K. Tsemekhman,
    K. Wolinski, J. Anchell, D. E. Bernholdt, P. Borowski, T. Clark, D. Clerc,
   H. Dachsel, M. J. O. Deegan, K. Dyall, D. Elwood, E. Glendening, M. Gutowski,
   A. C. Hess, J. Jaffe, B. G. Johnson, J. Ju, R. Kobayashi, R. Kutteh, Z. Lin,
   R. Littlefield, X. Long, B. Meng, T. Nakajima, S. Niu, L. Pollack, M. Rosing,
   K. Glaesemann, G. Sandrone, M. Stave, H. Taylor, G. Thomas, J. H. van Lenthe,
                               A. T. Wong, Z. Zhang.

 Total times  cpu:       85.7s     wall:       88.0s
