 argument  1 = input.nw
  NWChem w/ OpenMP: maximum threads =    1
 


============================== echo of input deck ==============================

echo
start H6
title "H6"

memory total 80 gb

geometry units bohr
symmetry c1
H 0 0 0
H 0 0 1.90
H 0 0 3.80
H 0 0 5.70
H 0 0 7.60
H 0 0 9.50
end

basis spherical
  * library cc-pVTZ
end

scf
thresh 1e-8
end

tce
  2eorb
  2emet 13
  ccsd
  thresh 1e-8
  maxiter 300
end

# set tce:print_integrals T
# set tce:qorb 6
# set tce:qela 3
# set tce:qelb 3

set tce:qducc T
set tce:nactv 3
set tce:nonhf T
set tce:ducc_model 6

set tce:printtol 0.02

task tce
================================================================================


                                         
                                         
 
 
             Northwest Computational Chemistry Package (NWChem) 7.2.3
             --------------------------------------------------------
 
 
                    Environmental Molecular Sciences Laboratory
                       Pacific Northwest National Laboratory
                                Richland, WA 99352
 
                              Copyright (c) 1994-2022
                       Pacific Northwest National Laboratory
                            Battelle Memorial Institute
 
             NWChem is an open-source computational chemistry package
                        distributed under the terms of the
                      Educational Community License (ECL) 2.0
             A copy of the license is included with this distribution
                              in the LICENSE.TXT file
 
                                  ACKNOWLEDGMENT
                                  --------------

            This software and its documentation were developed at the
            EMSL at Pacific Northwest National Laboratory, a multiprogram
            national laboratory, operated for the U.S. Department of Energy
            by Battelle under Contract Number DE-AC05-76RL01830. Support
            for this work was provided by the Department of Energy Office
            of Biological and Environmental Research, Office of Basic
            Energy Sciences, and the Office of Advanced Scientific Computing.


           Job information
           ---------------

    hostname        = koothan
    program         = /hpc/home/baum612/code/nwchem/bin/LINUX64/nwchem
    date            = Fri Nov 15 16:07:20 2024

    compiled        = Wed_Nov_13_16:23:19_2024
    source          = /hpc/home/baum612/code/nwchem
    nwchem branch   = 7.2.3
    nwchem revision = v7.2.0-beta1-1280-g0779ca2e41
    ga revision     = 5.8.0
    use scalapack   = T
    input           = input.nw
    prefix          = H6.
    data base       = ./H6.db
    status          = startup
    nproc           =        1
    time left       =     -1s



           Memory information
           ------------------

    heap     =   2684354560 doubles =    20480.0 Mbytes
    stack    =   2684354557 doubles =    20480.0 Mbytes
    global   =   5368709120 doubles =    40960.0 Mbytes (distinct from heap & stack)
    total    =  10737418237 doubles =    81920.0 Mbytes
    verify   = yes
    hardfail = no 


           Directory information
           ---------------------
 
  0 permanent = .
  0 scratch   = .
 
 
 
 
                                NWChem Input Module
                                -------------------
 
 
                                        H6
                                        --
 Turning off AUTOSYM since
 SYMMETRY directive was detected!
 

          ------
          auto-z
          ------
     1 autoz failed with cvr_scaling = 1.2 changing to 1.3
  Looking for out-of-plane bends
  autoz: insufficient variables                      5                    12
     2 autoz failed with cvr_scaling = 1.3 changing to 1.4
  Looking for out-of-plane bends
  autoz: insufficient variables                      5                    12
     3 autoz failed with cvr_scaling = 1.4 changing to 1.5
  Looking for out-of-plane bends
  autoz: insufficient variables                      5                    12
     4 autoz failed with cvr_scaling = 1.5 changing to 1.6
  Looking for out-of-plane bends
  autoz: insufficient variables                      5                    12
     5 autoz failed with cvr_scaling = 1.6 changing to 1.7
  Looking for out-of-plane bends
  autoz: insufficient variables                      5                    12

 AUTOZ failed to generate good internal coordinates.
 Cartesian coordinates will be used in optimizations.

 
 
                             Geometry "geometry" -> ""
                             -------------------------
 
 Output coordinates in a.u. (scale by  1.000000000 to convert to a.u.)
 
  No.       Tag          Charge          X              Y              Z
 ---- ---------------- ---------- -------------- -------------- --------------
    1 H                    1.0000     0.00000000     0.00000000    -4.75000000
    2 H                    1.0000     0.00000000     0.00000000    -2.85000000
    3 H                    1.0000     0.00000000     0.00000000    -0.95000000
    4 H                    1.0000     0.00000000     0.00000000     0.95000000
    5 H                    1.0000     0.00000000     0.00000000     2.85000000
    6 H                    1.0000     0.00000000     0.00000000     4.75000000
 
      Atomic Mass 
      ----------- 
 
      H                  1.007825
 

 Effective nuclear repulsion energy (a.u.)       4.5789473684

            Nuclear Dipole moment (a.u.) 
            ----------------------------
        X                 Y               Z
 ---------------- ---------------- ----------------
     0.0000000000     0.0000000000     0.0000000000
 
 
            XYZ format geometry
            -------------------
     6
 geometry
 H                     0.00000000     0.00000000    -2.51359193
 H                     0.00000000     0.00000000    -1.50815516
 H                     0.00000000     0.00000000    -0.50271839
 H                     0.00000000     0.00000000     0.50271839
 H                     0.00000000     0.00000000     1.50815516
 H                     0.00000000     0.00000000     2.51359193
 


 Summary of "ao basis" -> "" (spherical)
 ------------------------------------------------------------------------------
       Tag                 Description            Shells   Functions and Types
 ---------------- ------------------------------  ------  ---------------------
 *                          cc-pVTZ                   on all atoms 


                      Basis "ao basis" -> "ao basis" (spherical)
                      -----
  H (Hydrogen)
  ------------
            Exponent  Coefficients 
       -------------- ---------------------------------------------------------
  1 S  3.38700000E+01  0.006068
  1 S  5.09500000E+00  0.045308
  1 S  1.15900000E+00  0.202822
 
  2 S  3.25800000E-01  1.000000
 
  3 S  1.02700000E-01  1.000000
 
  4 P  1.40700000E+00  1.000000
 
  5 P  3.88000000E-01  1.000000
 
  6 D  1.05700000E+00  1.000000
 


 Summary of "ao basis" -> "ao basis" (spherical)
 ------------------------------------------------------------------------------
       Tag                 Description            Shells   Functions and Types
 ---------------- ------------------------------  ------  ---------------------
 H                          cc-pVTZ                  6       14   3s2p1d


                                 NWChem SCF Module
                                 -----------------
 
 
                                        H6
 
 

  ao basis        = "ao basis"
  functions       =    84
  atoms           =     6
  closed shells   =     3
  open shells     =     0
  charge          =   0.00
  wavefunction    = RHF 
  input vectors   = atomic
  output vectors  = ./H6.movecs
  use symmetry    = F
  symmetry adapt  = F


 Summary of "ao basis" -> "ao basis" (spherical)
 ------------------------------------------------------------------------------
       Tag                 Description            Shells   Functions and Types
 ---------------- ------------------------------  ------  ---------------------
 H                          cc-pVTZ                  6       14   3s2p1d



 Forming initial guess at       1.7s

 
      Superposition of Atomic Density Guess
      -------------------------------------
 
 Sum of atomic energies:          -2.99885518
 
      Non-variational initial energy
      ------------------------------

 Total energy =      -2.721138
 1-e energy   =     -11.811038
 2-e energy   =       4.510953
 HOMO         =      -0.290470
 LUMO         =      -0.024554
 

 Starting SCF solution at       1.8s



 ----------------------------------------------
         Quadratically convergent ROHF

 Convergence threshold     :          1.000E-08
 Maximum no. of iterations :           30
 Final Fock-matrix accuracy:          1.000E-10
 ----------------------------------------------


              iter       energy          gnorm     gmax       time
             ----- ------------------- --------- --------- --------
                 1       -3.2301578902  2.38D-01  1.26D-01      2.0
                 2       -3.2398421422  5.98D-02  3.52D-02      2.4
                 3       -3.2403616158  2.33D-03  1.01D-03      2.8
                 4       -3.2403622217  6.05D-07  2.67D-07      3.7
                 5       -3.2403622217  1.74D-10  8.19D-11      4.5


       Final RHF  results 
       ------------------ 

         Total SCF energy =     -3.240362221723
      One-electron energy =    -12.311842716348
      Two-electron energy =      4.492533126205
 Nuclear repulsion energy =      4.578947368421

        Time for solution =      2.7s


             Final eigenvalues
             -----------------

              1      
    1   -0.6984
    2   -0.5751
    3   -0.3899
    4    0.0533
    5    0.2127
    6    0.3098
    7    0.3250
    8    0.4078
    9    0.5030
   10    0.5575
   11    0.5575
   12    0.6205
   13    0.6410
 
                       ROHF Final Molecular Orbital Analysis
                       -------------------------------------
 
 Vector    1  Occ=2.000000D+00  E=-6.983992D-01
              MO Center= -3.4D-18,  1.9D-17,  5.0D-12, r^2= 2.1D+00
   Bfn.  Coefficient  Atom+Function         Bfn.  Coefficient  Atom+Function  
  ----- ------------  ---------------      ----- ------------  ---------------
    30      0.208263  3 H  s                 44      0.208263  4 H  s          
    16      0.150472  2 H  s                 58      0.150472  5 H  s          
 
 Vector    2  Occ=2.000000D+00  E=-5.751180D-01
              MO Center=  3.2D-17, -1.6D-16,  1.1D-12, r^2= 4.3D+00
   Bfn.  Coefficient  Atom+Function         Bfn.  Coefficient  Atom+Function  
  ----- ------------  ---------------      ----- ------------  ---------------
    16      0.212055  2 H  s                 58     -0.212055  5 H  s          
     2      0.176330  1 H  s                 72     -0.176330  6 H  s          
    17      0.172062  2 H  s                 59     -0.172062  5 H  s          
 
 Vector    3  Occ=2.000000D+00  E=-3.898711D-01
              MO Center= -1.8D-16, -1.2D-17, -1.1D-11, r^2= 4.5D+00
   Bfn.  Coefficient  Atom+Function         Bfn.  Coefficient  Atom+Function  
  ----- ------------  ---------------      ----- ------------  ---------------
    31     -0.226152  3 H  s                 45     -0.226152  4 H  s          
     2      0.206185  1 H  s                 30     -0.206483  3 H  s          
    44     -0.206483  4 H  s                 72      0.206185  6 H  s          
    17      0.185884  2 H  s                 59      0.185884  5 H  s          
     3      0.173211  1 H  s                 73      0.173211  6 H  s          
 
 Vector    4  Occ=0.000000D+00  E= 5.330465D-02
              MO Center=  6.6D-17,  2.8D-17, -3.8D-12, r^2= 6.9D+00
   Bfn.  Coefficient  Atom+Function         Bfn.  Coefficient  Atom+Function  
  ----- ------------  ---------------      ----- ------------  ---------------
    17     -0.976538  2 H  s                 59      0.976538  5 H  s          
     3      0.961596  1 H  s                 73     -0.961596  6 H  s          
    31      0.375199  3 H  s                 45     -0.375199  4 H  s          
    30     -0.234149  3 H  s                 44      0.234149  4 H  s          
 
 Vector    5  Occ=0.000000D+00  E= 2.126821D-01
              MO Center= -2.0D-16,  9.1D-17,  6.0D-11, r^2= 1.1D+01
   Bfn.  Coefficient  Atom+Function         Bfn.  Coefficient  Atom+Function  
  ----- ------------  ---------------      ----- ------------  ---------------
    17      2.210885  2 H  s                 59      2.210885  5 H  s          
     3     -1.848600  1 H  s                 73     -1.848600  6 H  s          
    31     -1.034250  3 H  s                 45     -1.034250  4 H  s          
     2      0.256086  1 H  s                 72      0.256086  6 H  s          
    16      0.161598  2 H  s                 58      0.161598  5 H  s          
 
 Vector    6  Occ=0.000000D+00  E= 3.098471D-01
              MO Center=  7.2D-17,  6.8D-17,  2.4D-10, r^2= 1.1D+01
   Bfn.  Coefficient  Atom+Function         Bfn.  Coefficient  Atom+Function  
  ----- ------------  ---------------      ----- ------------  ---------------
    31      6.799101  3 H  s                 45     -6.799101  4 H  s          
    17     -4.532346  2 H  s                 59      4.532346  5 H  s          
     3      2.426914  1 H  s                 73     -2.426914  6 H  s          
    37     -0.685220  3 H  pz                51     -0.685220  4 H  pz         
     2     -0.656840  1 H  s                 72      0.656840  6 H  s          
 
 Vector    7  Occ=0.000000D+00  E= 3.249590D-01
              MO Center=  4.5D-16,  2.7D-16, -7.8D-10, r^2= 4.2D+00
   Bfn.  Coefficient  Atom+Function         Bfn.  Coefficient  Atom+Function  
  ----- ------------  ---------------      ----- ------------  ---------------
    17      1.000560  2 H  s                 59      1.000560  5 H  s          
    30     -0.872565  3 H  s                 44     -0.872565  4 H  s          
    16     -0.407078  2 H  s                 58     -0.407078  5 H  s          
    31      0.367358  3 H  s                 45      0.367358  4 H  s          
    23      0.328377  2 H  pz                65     -0.328377  5 H  pz         
 
 Vector    8  Occ=0.000000D+00  E= 4.077879D-01
              MO Center=  3.0D-16,  3.5D-16,  2.6D-10, r^2= 7.3D+00
   Bfn.  Coefficient  Atom+Function         Bfn.  Coefficient  Atom+Function  
  ----- ------------  ---------------      ----- ------------  ---------------
    31     -6.009203  3 H  s                 45      6.009203  4 H  s          
    17      5.950286  2 H  s                 59     -5.950286  5 H  s          
    37     -2.072062  3 H  pz                51     -2.072062  4 H  pz         
     3     -1.927192  1 H  s                 73      1.927192  6 H  s          
    16     -1.783870  2 H  s                 58      1.783870  5 H  s          
 
 Vector    9  Occ=0.000000D+00  E= 5.029821D-01
              MO Center= -1.2D-16, -5.7D-17,  2.8D-10, r^2= 7.0D+00
   Bfn.  Coefficient  Atom+Function         Bfn.  Coefficient  Atom+Function  
  ----- ------------  ---------------      ----- ------------  ---------------
     2      1.140714  1 H  s                 31      1.143459  3 H  s          
    45      1.143459  4 H  s                 72      1.140714  6 H  s          
    17     -0.953358  2 H  s                 59     -0.953358  5 H  s          
    30     -0.665269  3 H  s                 44     -0.665269  4 H  s          
     3     -0.606379  1 H  s                 73     -0.606379  6 H  s          
 
 Vector   10  Occ=0.000000D+00  E= 5.575058D-01
              MO Center=  3.1D-16, -6.1D-16,  3.1D-12, r^2= 2.5D+00
   Bfn.  Coefficient  Atom+Function         Bfn.  Coefficient  Atom+Function  
  ----- ------------  ---------------      ----- ------------  ---------------
    36      0.321854  3 H  py                50      0.321854  4 H  py         
    22      0.250090  2 H  py                64      0.250090  5 H  py         
    35     -0.227179  3 H  px                49     -0.227179  4 H  px         
    21     -0.176525  2 H  px                63     -0.176525  5 H  px         
 
 Vector   11  Occ=0.000000D+00  E= 5.575058D-01
              MO Center= -4.0D-16, -3.9D-16,  3.1D-12, r^2= 2.5D+00
   Bfn.  Coefficient  Atom+Function         Bfn.  Coefficient  Atom+Function  
  ----- ------------  ---------------      ----- ------------  ---------------
    35      0.321854  3 H  px                49      0.321854  4 H  px         
    21      0.250090  2 H  px                63      0.250090  5 H  px         
    36      0.227179  3 H  py                50      0.227179  4 H  py         
    22      0.176525  2 H  py                64      0.176525  5 H  py         
 
 Vector   12  Occ=0.000000D+00  E= 6.205491D-01
              MO Center= -2.8D-17,  3.5D-16,  3.1D-10, r^2= 6.8D+00
   Bfn.  Coefficient  Atom+Function         Bfn.  Coefficient  Atom+Function  
  ----- ------------  ---------------      ----- ------------  ---------------
    17      4.931010  2 H  s                 59      4.931010  5 H  s          
    31     -2.929117  3 H  s                 45     -2.929117  4 H  s          
     3     -2.021404  1 H  s                 73     -2.021404  6 H  s          
    16     -1.426548  2 H  s                 58     -1.426548  5 H  s          
    30      1.205304  3 H  s                 44      1.205304  4 H  s          
 
 Vector   13  Occ=0.000000D+00  E= 6.409888D-01
              MO Center= -1.7D-16, -3.9D-16,  2.3D-12, r^2= 4.6D+00
   Bfn.  Coefficient  Atom+Function         Bfn.  Coefficient  Atom+Function  
  ----- ------------  ---------------      ----- ------------  ---------------
    22      0.373519  2 H  py                64     -0.373519  5 H  py         
     8      0.344718  1 H  py                78     -0.344718  6 H  py         
    21      0.174346  2 H  px                36      0.174706  3 H  py         
    50     -0.174706  4 H  py                63     -0.174346  5 H  px         
     7      0.160902  1 H  px                77     -0.160902  6 H  px         
 

 center of mass
 --------------
 x =   0.00000000 y =   0.00000000 z =   0.00000000

 moments of inertia (a.u.)
 ------------------
          63.669344375000           0.000000000000           0.000000000000
           0.000000000000          63.669344375000           0.000000000000
           0.000000000000           0.000000000000           0.000000000000
 
  Mulliken analysis of the total density
  --------------------------------------

    Atom       Charge   Shell Charges
 -----------   ------   -------------------------------------------------------
    1 H    1     0.96   0.19  0.49  0.26  0.00  0.01  0.00
    2 H    1     1.07   0.21  0.52  0.32  0.00  0.03  0.00
    3 H    1     0.96   0.21  0.53  0.19  0.00  0.03  0.00
    4 H    1     0.96   0.21  0.53  0.19  0.00  0.03  0.00
    5 H    1     1.07   0.21  0.52  0.32  0.00  0.03  0.00
    6 H    1     0.96   0.19  0.49  0.26  0.00  0.01  0.00
 
       Multipole analysis of the density wrt the origin
       ------------------------------------------------
 
     L   x y z        total         open         nuclear
     -   - - -        -----         ----         -------
     0   0 0 0     -0.000000      0.000000      6.000000
 
     1   1 0 0      0.000000      0.000000      0.000000
     1   0 1 0      0.000000      0.000000      0.000000
     1   0 0 1      0.000000      0.000000      0.000000
 
     2   2 0 0     -5.118181      0.000000      0.000000
     2   1 1 0     -0.000000      0.000000      0.000000
     2   1 0 1     -0.000000      0.000000      0.000000
     2   0 2 0     -5.118181      0.000000      0.000000
     2   0 1 1     -0.000000      0.000000      0.000000
     2   0 0 2     -4.696270      0.000000     63.175000
 
                   NWChem Extensible Many-Electron Theory Module
                   ---------------------------------------------
 
              ======================================================
                   This portion of the program was automatically
                  generated by a Tensor Contraction Engine (TCE).
                  The development of this portion of the program
                 and TCE was supported by US Department of Energy,
                Office of Science, Office of Basic Energy Science.
                      TCE is a product of Battelle and PNNL.
              Please cite: S.Hirata, J.Phys.Chem.A 107, 9887 (2003).
              ======================================================
 
                                        H6
 
 
            General Information
            -------------------
      Number of processors :     1
         Wavefunction type : Restricted Hartree-Fock
          No. of electrons :     6
           Alpha electrons :     3
            Beta electrons :     3
           No. of orbitals :   168
            Alpha orbitals :    84
             Beta orbitals :    84
        Alpha frozen cores :     0
         Beta frozen cores :     0
     Alpha frozen virtuals :     0
      Beta frozen virtuals :     0
         Spin multiplicity : singlet 
    Number of AO functions :    84
       Number of AO shells :    36
        Use of symmetry is : off
      Symmetry adaption is : off
         Schwarz screening : 0.10D-09
 
          Correlation Information
          -----------------------
          Calculation type : Coupled-cluster singles & doubles                           
   Perturbative correction : none                                                        
            Max iterations :      300
        Residual threshold : 0.10D-07
     T(0) DIIS level shift : 0.00D+00
     L(0) DIIS level shift : 0.00D+00
     T(1) DIIS level shift : 0.00D+00
     L(1) DIIS level shift : 0.00D+00
     T(R) DIIS level shift : 0.00D+00
     T(I) DIIS level shift : 0.00D+00
   CC-T/L Amplitude update :  5-th order DIIS
                I/O scheme : Global Array Library
        L-threshold :  0.10D-07
        EOM-threshold :  0.10D-07
 no EOMCCSD initial starts read in
 TCE RESTART OPTIONS
 READ_INT:   F
 WRITE_INT:  F
 READ_TA:    F
 WRITE_TA:   F
 READ_XA:    F
 WRITE_XA:   F
 READ_IN3:   F
 WRITE_IN3:  F
 SLICE:      F
 D4D5:       F
 quantumc:   F
 qrotation:  F
 pwtce:      F
 qducc:      T
 nacto:                          0
 nrotv:                          0
 nrot:                           0
 
            Memory Information
            ------------------
          Available GA space size is    5368702064 doubles
          Available MA space size is    5368706460 doubles
 
 Maximum block size        32 doubles

 tile_dim =     27

 Block   Spin    Irrep     Size     Offset   Alpha
 -------------------------------------------------
   1    alpha     a      3 doubles       0       1
   2    beta      a      3 doubles       3       1
   3    alpha     a     27 doubles       6       3
   4    alpha     a     27 doubles      33       4
   5    alpha     a     27 doubles      60       5
   6    beta      a     27 doubles      87       3
   7    beta      a     27 doubles     114       4
   8    beta      a     27 doubles     141       5

 Global array virtual files algorithm will be used

 Parallel file system coherency ......... OK
 
 Fock matrix recomputed
 1-e file size   =             7056
 1-e file name   = ./H6.f1
 Cpu & wall time / sec            0.2            0.2
 4-electron integrals stored in orbital form
 
 v2    file size   =         12304143
 4-index algorithm nr.  13 is used
 imaxsize =       30
 imaxsize ichop =        0
 Cpu & wall time / sec            8.4            8.4
 T1-number-of-tasks                     3
 
 t1 file size   =              243
 t1 file name   = ./H6.t1
 t1 file handle =       -998
 T2-number-of-boxes                    15
 
 t2 file size   =            98415
 t2 file name   = ./H6.t2
 t2 file handle =       -996
CCSD iterations
 ---------------------------------------------------------
 Iter          Residuum       Correlation     Cpu    Wall 
 ---------------------------------------------------------
NEW TASK SCHEDULING
CCSD_T1_NTS --- OK
CCSD_T2_NTS --- OK
    1   0.1265786386935  -0.1184447068419     0.9     0.9
    2   0.0459037262643  -0.1371421165610     0.9     0.9
    3   0.0209146465570  -0.1430870146900     0.9     0.9
    4   0.0109132577904  -0.1453607043718     0.9     0.9
    5   0.0062068686087  -0.1463971540833     0.9     0.9
 MICROCYCLE DIIS UPDATE:                     5                     5
    6   0.0016824565889  -0.1475028909797     0.9     0.9
    7   0.0009264789109  -0.1474937630147     0.9     0.9
    8   0.0005219121528  -0.1475017564528     0.9     0.9
    9   0.0003415841735  -0.1475063574144     0.9     0.9
   10   0.0002154146932  -0.1475126554833     0.9     0.9
 MICROCYCLE DIIS UPDATE:                    10                     5
   11   0.0000368739301  -0.1475245185656     0.9     0.9
   12   0.0000144351539  -0.1475273360163     0.9     0.9
   13   0.0000073621055  -0.1475287764186     0.9     0.9
   14   0.0000039876334  -0.1475293801140     0.9     0.9
   15   0.0000022739052  -0.1475296967692     0.9     0.9
 MICROCYCLE DIIS UPDATE:                    15                     5
   16   0.0000006028843  -0.1475300478870     0.9     0.9
   17   0.0000003537911  -0.1475300600438     0.9     0.9
   18   0.0000002030244  -0.1475300657958     0.9     0.9
   19   0.0000001339733  -0.1475300685581     1.0     1.0
   20   0.0000000849128  -0.1475300714767     1.0     1.0
 MICROCYCLE DIIS UPDATE:                    20                     5
   21   0.0000000143161  -0.1475300763253     1.0     1.0
   22   0.0000000058611  -0.1475300777036     1.0     1.0
 -----------------------------------------------------------------
 Iterations converged
 CCSD correlation energy / hartree =        -0.147530077703554
 CCSD total energy / hartree       =        -3.387892299426137

 Singles contributions
     4a   (alpha) ---     2a   (alpha)       -0.0210833648

 Doubles contributions
     4a   (alpha)     5a   (alpha) ---     2a   (alpha)     3a   (alpha)        0.0291980962
     4a   (alpha)     5a   (alpha) ---     3a   (alpha)     2a   (alpha)       -0.0291980962
     5a   (alpha)     4a   (alpha) ---     2a   (alpha)     3a   (alpha)       -0.0291980962
     5a   (alpha)     4a   (alpha) ---     3a   (alpha)     2a   (alpha)        0.0291980962
     4a   (alpha)     4a   (beta ) ---     1a   (alpha)     1a   (beta )       -0.0350739623
     4a   (alpha)     4a   (beta ) ---     2a   (alpha)     2a   (beta )       -0.0540540809
     4a   (alpha)     4a   (beta ) ---     3a   (alpha)     3a   (beta )       -0.1401767009
     4a   (alpha)     5a   (beta ) ---     2a   (alpha)     3a   (beta )        0.0408022003
     4a   (alpha)     6a   (beta ) ---     3a   (alpha)     3a   (beta )        0.0541157394
     4a   (alpha)     7a   (beta ) ---     2a   (alpha)     3a   (beta )        0.0201829393
     4a   (alpha)     9a   (beta ) ---     1a   (alpha)     2a   (beta )       -0.0219509733
     4a   (alpha)     9a   (beta ) ---     2a   (alpha)     3a   (beta )       -0.0392389900
     4a   (alpha)     9a   (beta ) ---     3a   (alpha)     2a   (beta )       -0.0281146534
     4a   (alpha)    12a   (beta ) ---     2a   (alpha)     3a   (beta )       -0.0275041177
     4a   (alpha)    15a   (beta ) ---     1a   (alpha)     3a   (beta )       -0.0211494996
     4a   (alpha)    18a   (beta ) ---     1a   (alpha)     3a   (beta )        0.0345290372
     5a   (alpha)     4a   (beta ) ---     3a   (alpha)     2a   (beta )        0.0408022003
     5a   (alpha)     5a   (beta ) ---     2a   (alpha)     2a   (beta )       -0.0262308529
     5a   (alpha)     5a   (beta ) ---     3a   (alpha)     3a   (beta )       -0.0268133946
     6a   (alpha)     4a   (beta ) ---     3a   (alpha)     3a   (beta )        0.0541157394
     6a   (alpha)     6a   (beta ) ---     3a   (alpha)     3a   (beta )       -0.0337165201
     7a   (alpha)     4a   (beta ) ---     3a   (alpha)     2a   (beta )        0.0201829393
     9a   (alpha)     4a   (beta ) ---     2a   (alpha)     1a   (beta )       -0.0219509733
     9a   (alpha)     4a   (beta ) ---     2a   (alpha)     3a   (beta )       -0.0281146534
     9a   (alpha)     4a   (beta ) ---     3a   (alpha)     2a   (beta )       -0.0392389900
     9a   (alpha)     9a   (beta ) ---     2a   (alpha)     2a   (beta )       -0.0234450997
     9a   (alpha)     9a   (beta ) ---     3a   (alpha)     3a   (beta )       -0.0221780837
    10a   (alpha)    10a   (beta ) ---     1a   (alpha)     1a   (beta )       -0.0229511355
    11a   (alpha)    11a   (beta ) ---     1a   (alpha)     1a   (beta )       -0.0229511355
    12a   (alpha)     4a   (beta ) ---     3a   (alpha)     2a   (beta )       -0.0275041177
    15a   (alpha)     4a   (beta ) ---     3a   (alpha)     1a   (beta )       -0.0211494996
    18a   (alpha)     4a   (beta ) ---     3a   (alpha)     1a   (beta )        0.0345290372
    18a   (alpha)    18a   (beta ) ---     1a   (alpha)     1a   (beta )       -0.0200653455
 Ground state specification:
 exp(T)|Ref>~(1+T)|Ref>
 ------- a(p)+/a(q) strings ----------

 singles norm

 doubles norm

 Reference string
  0.990317704143877      :(1a)+ (2a)+ (3a)+ (1b)+ (2b)+ (3b)+ |0>

 Singles strings

 Doubles strings
 -0.138819468588529      :(4a)+ (4b)+ (3b)  (3a)  (1a)+ (2a)+ (3a)+ (1b)+ (2b)+ 
 (3b)+ |0>
 -------------------------------------
 enrep_tce =    4.57894736842105     
  EHF(total)         =        -3.24036222
  Shift (HFtot-HFA)  =         0.00000000
 ALL OCCUPIED ORBITALS ARE ACTIVE IN DUCC --> NO SHIFT
 Number of active orbitals                     6
 Number of active alpha electrons                     3
 Number of active beta electrons                     3
  nos                      6
  nvs                    162
 noas                      3
 nobs                      3
 nvas                     81
 nvbs                     81
 nactv                      3
 DUCC MODEL =                      6
 NONHF =  T
 F-T1 correlation    =   6.393836507156912E-012
 V-T1-T1 correlation =   3.440637684114182E-005
 V-T2 correlation    =  -0.147564484079102     
 Total correlation   =  -0.147530077695867     
 F-T1(Ext) correlation         =   2.156956721967944E-012
 V-T1(Ext)-T1(Ext) correlation =   3.779305437422743E-005
 V-T2(Ext) correlation         =  -0.117628937123834     
 Total Ext correlation         =  -0.117591144067303     
1-BODY TIME =  608.303 SECONDS.
  HHHH TIME =  574.837 SECONDS.
  PPPP TIME =   14.938 SECONDS.
  HHHP TIME =   30.020 SECONDS.
  PPPH TIME =   20.045 SECONDS.
  HPHP TIME =   35.051 SECONDS.
  HHPP TIME =   18.749 SECONDS.
 ONE-BODY UNITARY CHECK
 TWO-BODY UNITARY CHECK
 TWO-BODY ANTISYMMETRY CHECK
 TRANSFORMED ~FOCK~ MATRIX
    1    1        -0.7329597103
    1    3         0.0027457831
    1    5        -0.0035623105
    2    2        -0.6106529112
    2    4         0.0028730924
    2    6         0.0058624569
    3    1         0.0027457831
    3    3        -0.4269367728
    3    5        -0.0073812194
    4    2         0.0028730924
    4    4         0.0652161482
    4    6        -0.0041494214
    5    1        -0.0035623105
    5    3        -0.0073812194
    5    5         0.2196735180
    6    2         0.0058624569
    6    4        -0.0041494214
    6    6         0.3149307933
 begin_one_electron_integrals
    1    1        -2.2759119167
    1    3         0.1444266683
    1    5        -0.0728975889
    1    6        -0.0000000001
    2    2        -2.0262695673
    2    4         0.2133559307
    2    6         0.0484024437
    3    1         0.1444266683
    3    3        -1.8663794807
    3    5        -0.2004154141
    4    2         0.2133559307
    4    4        -1.5284022168
    4    6         0.3272149892
    5    1        -0.0728975889
    5    3        -0.2004154141
    5    5        -1.0739467384
    6    1        -0.0000000001
    6    2         0.0484024437
    6    4         0.3272149892
    6    6        -0.9826004612
 end_one_electron_integrals
 begin_two_electron_integrals
    1    1    1    1        0.4127682014
    1    1    1    3       -0.0714394872
    1    1    1    5        0.0088099406
    1    2    1    2        0.1189729507
    1    2    1    4       -0.0426901426
    1    2    1    6        0.0007904307
    1    3    1    1       -0.0714394872
    1    3    1    3        0.0825666673
    1    3    1    5        0.0238945297
    1    4    1    2       -0.0426901426
    1    4    1    4        0.0581666247
    1    4    1    6       -0.0256533608
    1    5    1    1        0.0088099406
    1    5    1    3        0.0238945297
    1    5    1    5        0.0251409142
    1    6    1    2        0.0007904307
    1    6    1    4       -0.0256533608
    1    6    1    6        0.0213082098
    1    1    2    2        0.3301231850
    1    1    2    4       -0.0695531140
    1    1    2    6       -0.0001259167
    1    2    2    1        0.1197266650
    1    2    2    3        0.0869290760
    1    2    2    5        0.0384242133
    1    3    2    2        0.0177711209
    1    3    2    4        0.0395739060
    1    3    2    6       -0.0316283560
    1    4    2    1       -0.0427419042
    1    4    2    3        0.0027335486
    1    4    2    5       -0.0255569973
    1    5    2    2        0.0324433316
    1    5    2    4       -0.0113939984
    1    5    2    6       -0.0110243530
    1    6    2    1        0.0011419702
    1    6    2    3       -0.0207804624
    1    6    2    5       -0.0022953264
    1    1    3    1       -0.0714394872
    1    1    3    3        0.3369379892
    1    1    3    5        0.0640835498
    1    2    3    2        0.0898702066
    1    2    3    4        0.0579987858
    1    2    3    6       -0.0502065138
    1    3    3    1        0.0842116783
    1    3    3    3       -0.0188545639
    1    3    3    5       -0.0233677033
    1    4    3    2        0.0015320091
    1    4    3    4       -0.0049745268
    1    4    3    6        0.0117102100
    1    5    3    1        0.0233124196
    1    5    3    3        0.0053475923
    1    5    3    5        0.0053809350
    1    6    3    2       -0.0203862952
    1    6    3    4       -0.0020187971
    1    6    3    6        0.0060307112
    1    1    4    2       -0.0695531140
    1    1    4    4        0.3042510580
    1    1    4    6       -0.0822682924
    1    2    4    1       -0.0427419042
    1    2    4    3        0.0600085247
    1    2    4    5       -0.0594927213
    1    3    4    2        0.0396100260
    1    3    4    4       -0.0127508997
    1    3    4    6        0.0211716365
    1    4    4    1        0.0526969744
    1    4    4    3       -0.0069825468
    1    4    4    5        0.0037676890
    1    5    4    2       -0.0096703547
    1    5    4    4        0.0083577089
    1    5    4    6       -0.0024872387
    1    6    4    1       -0.0228242129
    1    6    4    3       -0.0003495518
    1    6    4    5        0.0039856865
    1    1    5    1        0.0088099406
    1    1    5    3        0.0640835498
    1    1    5    5        0.2245164823
    1    2    5    2        0.0383721820
    1    2    5    4       -0.0589728215
    1    2    5    6       -0.0402630522
    1    3    5    1        0.0233124196
    1    3    5    3       -0.0244656521
    1    3    5    5        0.0090392295
    1    4    5    2       -0.0227628461
    1    4    5    4        0.0038929171
    1    4    5    6        0.0003983967
    1    5    5    1        0.0206327884
    1    5    5    3        0.0055038593
    1    5    5    5        0.0080008286
    1    6    5    2       -0.0016361145
    1    6    5    4        0.0037761922
    1    6    5    6        0.0012783943
    1    1    6    2       -0.0001259167
    1    1    6    4       -0.0822682924
    1    1    6    6        0.2245357387
    1    2    6    1        0.0011419702
    1    2    6    3       -0.0511050291
    1    2    6    5       -0.0399212295
    1    3    6    2       -0.0319700607
    1    3    6    4        0.0206476708
    1    3    6    6        0.0059839950
    1    4    6    1       -0.0228242129
    1    4    6    3        0.0129638683
    1    4    6    5        0.0007896779
    1    5    6    2       -0.0092708954
    1    5    6    4       -0.0022568494
    1    5    6    6        0.0036242629
    1    6    6    1        0.0179248235
    1    6    6    3        0.0043286427
    1    6    6    5        0.0009809087
    1    6    6    6        0.0000000002
    2    1    1    2        0.1197266650
    2    1    1    4       -0.0427419042
    2    1    1    6        0.0011419702
    2    2    1    1        0.3301231850
    2    2    1    3        0.0177711209
    2    2    1    5        0.0324433316
    2    3    1    2        0.0869290760
    2    3    1    4        0.0027335486
    2    3    1    6       -0.0207804624
    2    4    1    1       -0.0695531140
    2    4    1    3        0.0395739060
    2    4    1    5       -0.0113939984
    2    5    1    2        0.0384242133
    2    5    1    4       -0.0255569973
    2    5    1    6       -0.0022953264
    2    6    1    1       -0.0001259167
    2    6    1    3       -0.0316283560
    2    6    1    5       -0.0110243530
    2    1    2    1        0.1189729507
    2    1    2    3        0.0898702066
    2    1    2    5        0.0383721820
    2    2    2    2        0.3492782757
    2    2    2    4       -0.0230636816
    2    2    2    6       -0.0360554414
    2    3    2    1        0.0898702066
    2    3    2    3        0.1024612289
    2    3    2    5        0.0220335384
    2    4    2    2       -0.0230636816
    2    4    2    4        0.0631796587
    2    4    2    6       -0.0258485999
    2    5    2    1        0.0383721820
    2    5    2    3        0.0220335384
    2    5    2    5        0.0344791315
    2    6    2    2       -0.0360554414
    2    6    2    4       -0.0258485999
    2    6    2    6        0.0317555943
    2    1    3    2        0.0869290760
    2    1    3    4        0.0600085247
    2    1    3    6       -0.0511050291
    2    2    3    1        0.0177711209
    2    2    3    3        0.3144573581
    2    2    3    5        0.0362425691
    2    3    3    2        0.1030960407
    2    3    3    4        0.0567828635
    2    3    3    6       -0.0423714831
    2    4    3    1        0.0396100260
    2    4    3    3       -0.0171359847
    2    4    3    5       -0.0338427772
    2    5    3    2        0.0211590608
    2    5    3    4       -0.0043781442
    2    5    3    6       -0.0154632265
    2    6    3    1       -0.0319700607
    2    6    3    3       -0.0237311125
    2    6    3    5        0.0017595007
    2    1    4    1       -0.0426901426
    2    1    4    3        0.0579987858
    2    1    4    5       -0.0589728215
    2    2    4    2       -0.0230636816
    2    2    4    4        0.2900852730
    2    2    4    6       -0.0594293996
    2    3    4    1        0.0015320091
    2    3    4    3        0.0597782184
    2    3    4    5       -0.0624479681
    2    4    4    2        0.0563320008
    2    4    4    4       -0.0152798015
    2    4    4    6        0.0164357900
    2    5    4    1       -0.0227628461
    2    5    4    3       -0.0018945512
    2    5    4    5       -0.0053486167
    2    6    4    2       -0.0213738334
    2    6    4    4       -0.0150489032
    2    6    4    6        0.0066738184
    2    1    5    2        0.0384242133
    2    1    5    4       -0.0594927213
    2    1    5    6       -0.0399212295
    2    2    5    1        0.0324433316
    2    2    5    3        0.0362425691
    2    2    5    5        0.2340946944
    2    3    5    2        0.0211590608
    2    3    5    4       -0.0616598751
    2    3    5    6       -0.0451109763
    2    4    5    1       -0.0096703547
    2    4    5    3       -0.0295720497
    2    4    5    5       -0.0019251014
    2    5    5    2        0.0291885734
    2    5    5    4       -0.0060122612
    2    5    5    6        0.0021284658
    2    6    5    1       -0.0092708954
    2    6    5    3        0.0008239767
    2    6    5    5       -0.0104930369
    2    1    6    1        0.0007904307
    2    1    6    3       -0.0502065138
    2    1    6    5       -0.0402630522
    2    2    6    2       -0.0360554414
    2    2    6    4       -0.0594293996
    2    2    6    6        0.2314684655
    2    3    6    1       -0.0203862952
    2    3    6    3       -0.0455512190
    2    3    6    5       -0.0444714511
    2    4    6    2       -0.0213738334
    2    4    6    4        0.0155914405
    2    4    6    6        0.0058326409
    2    5    6    1       -0.0016361145
    2    5    6    3       -0.0149714065
    2    5    6    5        0.0013961835
    2    6    6    2        0.0259025643
    2    6    6    4        0.0070847493
    2    6    6    6       -0.0152503043
    3    1    1    1       -0.0714394872
    3    1    1    3        0.0842116783
    3    1    1    5        0.0233124196
    3    2    1    2        0.0898702066
    3    2    1    4        0.0015320091
    3    2    1    6       -0.0203862952
    3    3    1    1        0.3369379892
    3    3    1    3       -0.0188545639
    3    3    1    5        0.0053475923
    3    4    1    2        0.0579987858
    3    4    1    4       -0.0049745268
    3    4    1    6       -0.0020187971
    3    5    1    1        0.0640835498
    3    5    1    3       -0.0233677033
    3    5    1    5        0.0053809350
    3    6    1    2       -0.0502065138
    3    6    1    4        0.0117102100
    3    6    1    6        0.0060307112
    3    1    2    2        0.0177711209
    3    1    2    4        0.0396100260
    3    1    2    6       -0.0319700607
    3    2    2    1        0.0869290760
    3    2    2    3        0.1030960407
    3    2    2    5        0.0211590608
    3    3    2    2        0.3144573581
    3    3    2    4       -0.0171359847
    3    3    2    6       -0.0237311125
    3    4    2    1        0.0600085247
    3    4    2    3        0.0567828635
    3    4    2    5       -0.0043781442
    3    5    2    2        0.0362425691
    3    5    2    4       -0.0338427772
    3    5    2    6        0.0017595007
    3    6    2    1       -0.0511050291
    3    6    2    3       -0.0423714831
    3    6    2    5       -0.0154632265
    3    1    3    1        0.0825666673
    3    1    3    3       -0.0188545639
    3    1    3    5       -0.0244656521
    3    2    3    2        0.1024612289
    3    2    3    4        0.0597782184
    3    2    3    6       -0.0455512190
    3    3    3    1       -0.0188545639
    3    3    3    3        0.3239597325
    3    3    3    5        0.0368534375
    3    4    3    2        0.0597782184
    3    4    3    4        0.0762633659
    3    4    3    6       -0.0430544343
    3    5    3    1       -0.0244656521
    3    5    3    3        0.0368534375
    3    5    3    5        0.0310411981
    3    6    3    2       -0.0455512190
    3    6    3    4       -0.0430544343
    3    6    3    6        0.0406136178
    3    1    4    2        0.0395739060
    3    1    4    4       -0.0127508997
    3    1    4    6        0.0206476708
    3    2    4    1        0.0027335486
    3    2    4    3        0.0567828635
    3    2    4    5       -0.0616598751
    3    3    4    2       -0.0171359847
    3    3    4    4        0.2892677484
    3    3    4    6       -0.0640592222
    3    4    4    1       -0.0069825468
    3    4    4    3        0.0645608186
    3    4    4    5       -0.0456956355
    3    5    4    2       -0.0295720497
    3    5    4    4        0.0201880829
    3    5    4    6       -0.0224517239
    3    6    4    1        0.0129638683
    3    6    4    3       -0.0359513717
    3    6    4    5        0.0171796560
    3    1    5    1        0.0238945297
    3    1    5    3       -0.0233677033
    3    1    5    5        0.0090392295
    3    2    5    2        0.0220335384
    3    2    5    4       -0.0624479681
    3    2    5    6       -0.0444714511
    3    3    5    1        0.0053475923
    3    3    5    3        0.0368534375
    3    3    5    5        0.2275334025
    3    4    5    2       -0.0018945512
    3    4    5    4       -0.0426309126
    3    4    5    6       -0.0386980351
    3    5    5    1        0.0055038593
    3    5    5    3        0.0288475403
    3    5    5    5        0.0041214879
    3    6    5    2       -0.0149714065
    3    6    5    4        0.0160519149
    3    6    5    6        0.0101072911
    3    1    6    2       -0.0316283560
    3    1    6    4        0.0211716365
    3    1    6    6        0.0059839950
    3    2    6    1       -0.0207804624
    3    2    6    3       -0.0423714831
    3    2    6    5       -0.0451109763
    3    3    6    2       -0.0237311125
    3    3    6    4       -0.0640592222
    3    3    6    6        0.2322454327
    3    4    6    1       -0.0003495518
    3    4    6    3       -0.0359513717
    3    4    6    5       -0.0364818835
    3    5    6    2        0.0008239767
    3    5    6    4       -0.0211426296
    3    5    6    6        0.0044759987
    3    6    6    1        0.0043286427
    3    6    6    3        0.0351406316
    3    6    6    5        0.0093618667
    3    6    6    6       -0.0000000005
    4    1    1    2       -0.0427419042
    4    1    1    4        0.0526969744
    4    1    1    6       -0.0228242129
    4    2    1    1       -0.0695531140
    4    2    1    3        0.0396100260
    4    2    1    5       -0.0096703547
    4    3    1    2        0.0600085247
    4    3    1    4       -0.0069825468
    4    3    1    6       -0.0003495518
    4    4    1    1        0.3042510580
    4    4    1    3       -0.0127508997
    4    4    1    5        0.0083577089
    4    5    1    2       -0.0594927213
    4    5    1    4        0.0037676890
    4    5    1    6        0.0039856865
    4    6    1    1       -0.0822682924
    4    6    1    3        0.0211716365
    4    6    1    5       -0.0024872387
    4    1    2    1       -0.0426901426
    4    1    2    3        0.0015320091
    4    1    2    5       -0.0227628461
    4    2    2    2       -0.0230636816
    4    2    2    4        0.0563320008
    4    2    2    6       -0.0213738334
    4    3    2    1        0.0579987858
    4    3    2    3        0.0597782184
    4    3    2    5       -0.0018945512
    4    4    2    2        0.2900852730
    4    4    2    4       -0.0152798015
    4    4    2    6       -0.0150489032
    4    5    2    1       -0.0589728215
    4    5    2    3       -0.0624479681
    4    5    2    5       -0.0053486167
    4    6    2    2       -0.0594293996
    4    6    2    4        0.0164357900
    4    6    2    6        0.0066738184
    4    1    3    2        0.0027335486
    4    1    3    4       -0.0069825468
    4    1    3    6        0.0129638683
    4    2    3    1        0.0395739060
    4    2    3    3       -0.0171359847
    4    2    3    5       -0.0295720497
    4    3    3    2        0.0567828635
    4    3    3    4        0.0645608186
    4    3    3    6       -0.0359513717
    4    4    3    1       -0.0127508997
    4    4    3    3        0.2892677484
    4    4    3    5        0.0201880829
    4    5    3    2       -0.0616598751
    4    5    3    4       -0.0456956355
    4    5    3    6        0.0171796560
    4    6    3    1        0.0206476708
    4    6    3    3       -0.0640592222
    4    6    3    5       -0.0224517239
    4    1    4    1        0.0581666247
    4    1    4    3       -0.0049745268
    4    1    4    5        0.0038929171
    4    2    4    2        0.0631796587
    4    2    4    4       -0.0152798015
    4    2    4    6        0.0155914405
    4    3    4    1       -0.0049745268
    4    3    4    3        0.0762633659
    4    3    4    5       -0.0426309126
    4    4    4    2       -0.0152798015
    4    4    4    4        0.2698892675
    4    4    4    6       -0.0427855375
    4    5    4    1        0.0038929171
    4    5    4    3       -0.0426309126
    4    5    4    5        0.0630769919
    4    6    4    2        0.0155914405
    4    6    4    4       -0.0427855375
    4    6    4    6        0.0374243129
    4    1    5    2       -0.0255569973
    4    1    5    4        0.0037676890
    4    1    5    6        0.0007896779
    4    2    5    1       -0.0113939984
    4    2    5    3       -0.0338427772
    4    2    5    5       -0.0019251014
    4    3    5    2       -0.0043781442
    4    3    5    4       -0.0456956355
    4    3    5    6       -0.0364818835
    4    4    5    1        0.0083577089
    4    4    5    3        0.0201880829
    4    4    5    5        0.2218030395
    4    5    5    2       -0.0060122612
    4    5    5    4        0.0631634356
    4    5    5    6        0.0533453790
    4    6    5    1       -0.0022568494
    4    6    5    3       -0.0211426296
    4    6    5    5       -0.0061967966
    4    6    5    6       -0.0000000005
    4    1    6    1       -0.0256533608
    4    1    6    3        0.0117102100
    4    1    6    5        0.0003983967
    4    2    6    2       -0.0258485999
    4    2    6    4        0.0164357900
    4    2    6    6        0.0058326409
    4    3    6    1       -0.0020187971
    4    3    6    3       -0.0430544343
    4    3    6    5       -0.0386980351
    4    4    6    2       -0.0150489032
    4    4    6    4       -0.0427855375
    4    4    6    6        0.2196289219
    4    5    6    1        0.0037761922
    4    5    6    3        0.0160519149
    4    5    6    5        0.0533269742
    4    5    6    6       -0.0000000003
    4    6    6    2        0.0070847493
    4    6    6    4        0.0375181316
    4    6    6    5       -0.0000000005
    4    6    6    6       -0.0149369153
    5    1    1    1        0.0088099406
    5    1    1    3        0.0233124196
    5    1    1    5        0.0206327884
    5    2    1    2        0.0383721820
    5    2    1    4       -0.0227628461
    5    2    1    6       -0.0016361145
    5    3    1    1        0.0640835498
    5    3    1    3       -0.0244656521
    5    3    1    5        0.0055038593
    5    4    1    2       -0.0589728215
    5    4    1    4        0.0038929171
    5    4    1    6        0.0037761922
    5    5    1    1        0.2245164823
    5    5    1    3        0.0090392295
    5    5    1    5        0.0080008286
    5    6    1    2       -0.0402630522
    5    6    1    4        0.0003983967
    5    6    1    6        0.0012783943
    5    1    2    2        0.0324433316
    5    1    2    4       -0.0096703547
    5    1    2    6       -0.0092708954
    5    2    2    1        0.0384242133
    5    2    2    3        0.0211590608
    5    2    2    5        0.0291885734
    5    3    2    2        0.0362425691
    5    3    2    4       -0.0295720497
    5    3    2    6        0.0008239767
    5    4    2    1       -0.0594927213
    5    4    2    3       -0.0616598751
    5    4    2    5       -0.0060122612
    5    5    2    2        0.2340946944
    5    5    2    4       -0.0019251014
    5    5    2    6       -0.0104930369
    5    6    2    1       -0.0399212295
    5    6    2    3       -0.0451109763
    5    6    2    5        0.0021284658
    5    1    3    1        0.0238945297
    5    1    3    3        0.0053475923
    5    1    3    5        0.0055038593
    5    2    3    2        0.0220335384
    5    2    3    4       -0.0018945512
    5    2    3    6       -0.0149714065
    5    3    3    1       -0.0233677033
    5    3    3    3        0.0368534375
    5    3    3    5        0.0288475403
    5    4    3    2       -0.0624479681
    5    4    3    4       -0.0426309126
    5    4    3    6        0.0160519149
    5    5    3    1        0.0090392295
    5    5    3    3        0.2275334025
    5    5    3    5        0.0041214879
    5    6    3    2       -0.0444714511
    5    6    3    4       -0.0386980351
    5    6    3    6        0.0101072911
    5    1    4    2       -0.0113939984
    5    1    4    4        0.0083577089
    5    1    4    6       -0.0022568494
    5    2    4    1       -0.0255569973
    5    2    4    3       -0.0043781442
    5    2    4    5       -0.0060122612
    5    3    4    2       -0.0338427772
    5    3    4    4        0.0201880829
    5    3    4    6       -0.0211426296
    5    4    4    1        0.0037676890
    5    4    4    3       -0.0456956355
    5    4    4    5        0.0631634356
    5    5    4    2       -0.0019251014
    5    5    4    4        0.2218030395
    5    5    4    6       -0.0061967966
    5    6    4    1        0.0007896779
    5    6    4    3       -0.0364818835
    5    6    4    5        0.0533453790
    5    6    4    6       -0.0000000005
    5    1    5    1        0.0251409142
    5    1    5    3        0.0053809350
    5    1    5    5        0.0080008286
    5    2    5    2        0.0344791315
    5    2    5    4       -0.0053486167
    5    2    5    6        0.0013961835
    5    3    5    1        0.0053809350
    5    3    5    3        0.0310411981
    5    3    5    5        0.0041214879
    5    4    5    2       -0.0053486167
    5    4    5    4        0.0630769919
    5    4    5    6        0.0533269742
    5    5    5    1        0.0080008286
    5    5    5    3        0.0041214879
    5    5    5    5        0.2134082166
    5    5    5    6       -0.0000000002
    5    6    5    2        0.0013961835
    5    6    5    4        0.0533269742
    5    6    5    5       -0.0000000002
    5    6    5    6        0.0566861026
    5    1    6    2       -0.0110243530
    5    1    6    4       -0.0024872387
    5    1    6    6        0.0036242629
    5    2    6    1       -0.0022953264
    5    2    6    3       -0.0154632265
    5    2    6    5        0.0021284658
    5    3    6    2        0.0017595007
    5    3    6    4       -0.0224517239
    5    3    6    6        0.0044759987
    5    4    6    1        0.0039856865
    5    4    6    3        0.0171796560
    5    4    6    5        0.0533453790
    5    4    6    6       -0.0000000003
    5    5    6    2       -0.0104930369
    5    5    6    4       -0.0061967966
    5    5    6    5       -0.0000000002
    5    5    6    6        0.2030370943
    5    6    6    1        0.0009809087
    5    6    6    3        0.0093618667
    5    6    6    4       -0.0000000005
    5    6    6    5        0.0566484766
    5    6    6    6       -0.0000000034
    6    1    1    2        0.0011419702
    6    1    1    4       -0.0228242129
    6    1    1    6        0.0179248235
    6    2    1    1       -0.0001259167
    6    2    1    3       -0.0319700607
    6    2    1    5       -0.0092708954
    6    3    1    2       -0.0511050291
    6    3    1    4        0.0129638683
    6    3    1    6        0.0043286427
    6    4    1    1       -0.0822682924
    6    4    1    3        0.0206476708
    6    4    1    5       -0.0022568494
    6    5    1    2       -0.0399212295
    6    5    1    4        0.0007896779
    6    5    1    6        0.0009809087
    6    6    1    1        0.2245357387
    6    6    1    3        0.0059839950
    6    6    1    5        0.0036242629
    6    6    1    6        0.0000000002
    6    1    2    1        0.0007904307
    6    1    2    3       -0.0203862952
    6    1    2    5       -0.0016361145
    6    2    2    2       -0.0360554414
    6    2    2    4       -0.0213738334
    6    2    2    6        0.0259025643
    6    3    2    1       -0.0502065138
    6    3    2    3       -0.0455512190
    6    3    2    5       -0.0149714065
    6    4    2    2       -0.0594293996
    6    4    2    4        0.0155914405
    6    4    2    6        0.0070847493
    6    5    2    1       -0.0402630522
    6    5    2    3       -0.0444714511
    6    5    2    5        0.0013961835
    6    6    2    2        0.2314684655
    6    6    2    4        0.0058326409
    6    6    2    6       -0.0152503043
    6    1    3    2       -0.0207804624
    6    1    3    4       -0.0003495518
    6    1    3    6        0.0043286427
    6    2    3    1       -0.0316283560
    6    2    3    3       -0.0237311125
    6    2    3    5        0.0008239767
    6    3    3    2       -0.0423714831
    6    3    3    4       -0.0359513717
    6    3    3    6        0.0351406316
    6    4    3    1        0.0211716365
    6    4    3    3       -0.0640592222
    6    4    3    5       -0.0211426296
    6    5    3    2       -0.0451109763
    6    5    3    4       -0.0364818835
    6    5    3    6        0.0093618667
    6    6    3    1        0.0059839950
    6    6    3    3        0.2322454327
    6    6    3    5        0.0044759987
    6    6    3    6       -0.0000000005
    6    1    4    1       -0.0256533608
    6    1    4    3       -0.0020187971
    6    1    4    5        0.0037761922
    6    2    4    2       -0.0258485999
    6    2    4    4       -0.0150489032
    6    2    4    6        0.0070847493
    6    3    4    1        0.0117102100
    6    3    4    3       -0.0430544343
    6    3    4    5        0.0160519149
    6    4    4    2        0.0164357900
    6    4    4    4       -0.0427855375
    6    4    4    6        0.0375181316
    6    5    4    1        0.0003983967
    6    5    4    3       -0.0386980351
    6    5    4    5        0.0533269742
    6    5    4    6       -0.0000000005
    6    6    4    2        0.0058326409
    6    6    4    4        0.2196289219
    6    6    4    5       -0.0000000003
    6    6    4    6       -0.0149369153
    6    1    5    2       -0.0022953264
    6    1    5    4        0.0039856865
    6    1    5    6        0.0009809087
    6    2    5    1       -0.0110243530
    6    2    5    3        0.0017595007
    6    2    5    5       -0.0104930369
    6    3    5    2       -0.0154632265
    6    3    5    4        0.0171796560
    6    3    5    6        0.0093618667
    6    4    5    1       -0.0024872387
    6    4    5    3       -0.0224517239
    6    4    5    5       -0.0061967966
    6    4    5    6       -0.0000000005
    6    5    5    2        0.0021284658
    6    5    5    4        0.0533453790
    6    5    5    5       -0.0000000002
    6    5    5    6        0.0566484766
    6    6    5    1        0.0036242629
    6    6    5    3        0.0044759987
    6    6    5    4       -0.0000000003
    6    6    5    5        0.2030370943
    6    6    5    6       -0.0000000034
    6    1    6    1        0.0213082098
    6    1    6    3        0.0060307112
    6    1    6    5        0.0012783943
    6    1    6    6        0.0000000002
    6    2    6    2        0.0317555943
    6    2    6    4        0.0066738184
    6    2    6    6       -0.0152503043
    6    3    6    1        0.0060307112
    6    3    6    3        0.0406136178
    6    3    6    5        0.0101072911
    6    3    6    6       -0.0000000005
    6    4    6    2        0.0066738184
    6    4    6    4        0.0374243129
    6    4    6    5       -0.0000000005
    6    4    6    6       -0.0149369153
    6    5    6    1        0.0012783943
    6    5    6    3        0.0101072911
    6    5    6    4       -0.0000000005
    6    5    6    5        0.0566861026
    6    5    6    6       -0.0000000034
    6    6    6    1        0.0000000002
    6    6    6    2       -0.0152503043
    6    6    6    3       -0.0000000005
    6    6    6    4       -0.0149369153
    6    6    6    5       -0.0000000034
    6    6    6    6        0.2031398752
 end_two_electron_integrals

 Task  times  cpu:     1451.8s     wall:     1451.8s
 
 
                                NWChem Input Module
                                -------------------
 
 
 Summary of allocated global arrays
-----------------------------------
  No active global arrays


MA_summarize_allocated_blocks: starting scan ...
MA_summarize_allocated_blocks: scan completed: 0 heap blocks, 0 stack blocks
MA usage statistics:

	allocation statistics:
					      heap	     stack
					      ----	     -----
	current number of blocks	         0	         0
	maximum number of blocks	        16	        42
	current total bytes		         0	         0
	maximum total bytes		     80104	20728605000
	maximum total K-bytes		        81	  20728605
	maximum total M-bytes		         1	     20729
 
 
                                     CITATION
                                     --------
                Please cite the following reference when publishing
                           results obtained with NWChem:
 
          E. Apra, E. J. Bylaska, W. A. de Jong, N. Govind, K. Kowalski,
       T. P. Straatsma, M. Valiev, H. J. J. van Dam, Y. Alexeev, J. Anchell,
       V. Anisimov, F. W. Aquino, R. Atta-Fynn, J. Autschbach, N. P. Bauman,
     J. C. Becca, D. E. Bernholdt, K. Bhaskaran-Nair, S. Bogatko, P. Borowski,
         J. Boschen, J. Brabec, A. Bruner, E. Cauet, Y. Chen, G. N. Chuev,
      C. J. Cramer, J. Daily, M. J. O. Deegan, T. H. Dunning Jr., M. Dupuis,
   K. G. Dyall, G. I. Fann, S. A. Fischer, A. Fonari, H. Fruchtl, L. Gagliardi,
      J. Garza, N. Gawande, S. Ghosh, K. Glaesemann, A. W. Gotz, J. Hammond,
       V. Helms, E. D. Hermes, K. Hirao, S. Hirata, M. Jacquelin, L. Jensen,
   B. G. Johnson, H. Jonsson, R. A. Kendall, M. Klemm, R. Kobayashi, V. Konkov,
      S. Krishnamoorthy, M. Krishnan, Z. Lin, R. D. Lins, R. J. Littlefield,
      A. J. Logsdail, K. Lopata, W. Ma, A. V. Marenich, J. Martin del Campo,
   D. Mejia-Rodriguez, J. E. Moore, J. M. Mullin, T. Nakajima, D. R. Nascimento,
    J. A. Nichols, P. J. Nichols, J. Nieplocha, A. Otero-de-la-Roza, B. Palmer,
    A. Panyala, T. Pirojsirikul, B. Peng, R. Peverati, J. Pittner, L. Pollack,
   R. M. Richard, P. Sadayappan, G. C. Schatz, W. A. Shelton, D. W. Silverstein,
   D. M. A. Smith, T. A. Soares, D. Song, M. Swart, H. L. Taylor, G. S. Thomas,
            V. Tipparaju, D. G. Truhlar, K. Tsemekhman, T. Van Voorhis,
      A. Vazquez-Mayagoitia, P. Verma, O. Villa, A. Vishnu, K. D. Vogiatzis,
        D. Wang, J. H. Weare, M. J. Williamson, T. L. Windus, K. Wolinski,
        A. T. Wong, Q. Wu, C. Yang, Q. Yu, M. Zacharias, Z. Zhang, Y. Zhao,
                                and R. J. Harrison
                        "NWChem: Past, present, and future
                         J. Chem. Phys. 152, 184102 (2020)
                               doi:10.1063/5.0004997
 
                                      AUTHORS
                                      -------
  E. Apra, E. J. Bylaska, N. Govind, K. Kowalski, M. Valiev, D. Mejia-Rodriguez,
       A. Kunitsa, N. P. Bauman, A. Panyala, W. A. de Jong, T. P. Straatsma,
   H. J. J. van Dam, D. Wang, T. L. Windus, J. Hammond, J. Autschbach, A. Woods,
    K. Bhaskaran-Nair, J. Brabec, K. Lopata, S. A. Fischer, S. Krishnamoorthy,
     M. Jacquelin, W. Ma, M. Klemm, O. Villa, Y. Chen, V. Anisimov, F. Aquino,
     S. Hirata, M. T. Hackler, E. Hermes, L. Jensen, J. E. Moore, J. C. Becca,
      V. Konjkov, T. Risthaus, M. Malagoli, A. Marenich, A. Otero-de-la-Roza,
        J. Mullin, P. Nichols, R. Peverati, J. Pittner, Y. Zhao, P.-D. Fan,
        A. Fonari, M. J. Williamson, R. J. Harrison, J. R. Rehr, M. Dupuis,
     D. Silverstein, D. M. A. Smith, J. Nieplocha, V. Tipparaju, M. Krishnan,
     B. E. Van Kuiken, A. Vazquez-Mayagoitia, M. Swart, Q. Wu, T. Van Voorhis,
     A. A. Auer, M. Nooijen, L. D. Crosby, E. Brown, G. Cisneros, G. I. Fann,
   H. Fruchtl, J. Garza, K. Hirao, R. A. Kendall, J. A. Nichols, K. Tsemekhman,
    K. Wolinski, J. Anchell, D. E. Bernholdt, P. Borowski, T. Clark, D. Clerc,
   H. Dachsel, M. J. O. Deegan, K. Dyall, D. Elwood, E. Glendening, M. Gutowski,
   A. C. Hess, J. Jaffe, B. G. Johnson, J. Ju, R. Kobayashi, R. Kutteh, Z. Lin,
   R. Littlefield, X. Long, B. Meng, T. Nakajima, S. Niu, L. Pollack, M. Rosing,
   K. Glaesemann, G. Sandrone, M. Stave, H. Taylor, G. Thomas, J. H. van Lenthe,
                               A. T. Wong, Z. Zhang.

 Total times  cpu:     1453.5s     wall:     1453.5s
