 argument  1 = input.nw
  NWChem w/ OpenMP: maximum threads =    1
 


============================== echo of input deck ==============================

echo
start H6
title "H6"

memory total 80 gb

geometry units bohr
symmetry c1
H 0 0 0
H 0 0 2.14
H 0 0 4.28
H 0 0 6.42
H 0 0 8.56
H 0 0 10.70
end

basis spherical
  * library cc-pVTZ
end

scf
thresh 1e-8
end

tce
  2eorb
  2emet 13
  ccsd
  thresh 1e-8
  maxiter 300
end

# set tce:print_integrals T
# set tce:qorb 6
# set tce:qela 3
# set tce:qelb 3

set tce:qducc T
set tce:nactv 3
set tce:nonhf T
set tce:ducc_model 6

set tce:printtol 0.02

task tce
================================================================================


                                         
                                         
 
 
             Northwest Computational Chemistry Package (NWChem) 7.2.3
             --------------------------------------------------------
 
 
                    Environmental Molecular Sciences Laboratory
                       Pacific Northwest National Laboratory
                                Richland, WA 99352
 
                              Copyright (c) 1994-2022
                       Pacific Northwest National Laboratory
                            Battelle Memorial Institute
 
             NWChem is an open-source computational chemistry package
                        distributed under the terms of the
                      Educational Community License (ECL) 2.0
             A copy of the license is included with this distribution
                              in the LICENSE.TXT file
 
                                  ACKNOWLEDGMENT
                                  --------------

            This software and its documentation were developed at the
            EMSL at Pacific Northwest National Laboratory, a multiprogram
            national laboratory, operated for the U.S. Department of Energy
            by Battelle under Contract Number DE-AC05-76RL01830. Support
            for this work was provided by the Department of Energy Office
            of Biological and Environmental Research, Office of Basic
            Energy Sciences, and the Office of Advanced Scientific Computing.


           Job information
           ---------------

    hostname        = koothan
    program         = /hpc/home/baum612/code/nwchem/bin/LINUX64/nwchem
    date            = Fri Nov 15 13:54:26 2024

    compiled        = Wed_Nov_13_16:23:19_2024
    source          = /hpc/home/baum612/code/nwchem
    nwchem branch   = 7.2.3
    nwchem revision = v7.2.0-beta1-1280-g0779ca2e41
    ga revision     = 5.8.0
    use scalapack   = T
    input           = input.nw
    prefix          = H6.
    data base       = ./H6.db
    status          = startup
    nproc           =        1
    time left       =     -1s



           Memory information
           ------------------

    heap     =   2684354560 doubles =    20480.0 Mbytes
    stack    =   2684354557 doubles =    20480.0 Mbytes
    global   =   5368709120 doubles =    40960.0 Mbytes (distinct from heap & stack)
    total    =  10737418237 doubles =    81920.0 Mbytes
    verify   = yes
    hardfail = no 


           Directory information
           ---------------------
 
  0 permanent = .
  0 scratch   = .
 
 
 
 
                                NWChem Input Module
                                -------------------
 
 
                                        H6
                                        --
 Turning off AUTOSYM since
 SYMMETRY directive was detected!
 

          ------
          auto-z
          ------
     1 autoz failed with cvr_scaling = 1.2 changing to 1.3
     2 autoz failed with cvr_scaling = 1.3 changing to 1.4
     3 autoz failed with cvr_scaling = 1.4 changing to 1.5
  Looking for out-of-plane bends
  autoz: insufficient variables                      5                    12
     4 autoz failed with cvr_scaling = 1.5 changing to 1.6
  Looking for out-of-plane bends
  autoz: insufficient variables                      5                    12
     5 autoz failed with cvr_scaling = 1.6 changing to 1.7
  Looking for out-of-plane bends
  autoz: insufficient variables                      5                    12

 AUTOZ failed to generate good internal coordinates.
 Cartesian coordinates will be used in optimizations.

 
 
                             Geometry "geometry" -> ""
                             -------------------------
 
 Output coordinates in a.u. (scale by  1.000000000 to convert to a.u.)
 
  No.       Tag          Charge          X              Y              Z
 ---- ---------------- ---------- -------------- -------------- --------------
    1 H                    1.0000     0.00000000     0.00000000    -5.35000000
    2 H                    1.0000     0.00000000     0.00000000    -3.21000000
    3 H                    1.0000     0.00000000     0.00000000    -1.07000000
    4 H                    1.0000     0.00000000     0.00000000     1.07000000
    5 H                    1.0000     0.00000000     0.00000000     3.21000000
    6 H                    1.0000     0.00000000     0.00000000     5.35000000
 
      Atomic Mass 
      ----------- 
 
      H                  1.007825
 

 Effective nuclear repulsion energy (a.u.)       4.0654205607

            Nuclear Dipole moment (a.u.) 
            ----------------------------
        X                 Y               Z
 ---------------- ---------------- ----------------
     0.0000000000     0.0000000000    -0.0000000000
 
 
            XYZ format geometry
            -------------------
     6
 geometry
 H                     0.00000000     0.00000000    -2.83109828
 H                     0.00000000     0.00000000    -1.69865897
 H                     0.00000000     0.00000000    -0.56621966
 H                     0.00000000     0.00000000     0.56621966
 H                     0.00000000     0.00000000     1.69865897
 H                     0.00000000     0.00000000     2.83109828
 


 Summary of "ao basis" -> "" (spherical)
 ------------------------------------------------------------------------------
       Tag                 Description            Shells   Functions and Types
 ---------------- ------------------------------  ------  ---------------------
 *                          cc-pVTZ                   on all atoms 


                      Basis "ao basis" -> "ao basis" (spherical)
                      -----
  H (Hydrogen)
  ------------
            Exponent  Coefficients 
       -------------- ---------------------------------------------------------
  1 S  3.38700000E+01  0.006068
  1 S  5.09500000E+00  0.045308
  1 S  1.15900000E+00  0.202822
 
  2 S  3.25800000E-01  1.000000
 
  3 S  1.02700000E-01  1.000000
 
  4 P  1.40700000E+00  1.000000
 
  5 P  3.88000000E-01  1.000000
 
  6 D  1.05700000E+00  1.000000
 


 Summary of "ao basis" -> "ao basis" (spherical)
 ------------------------------------------------------------------------------
       Tag                 Description            Shells   Functions and Types
 ---------------- ------------------------------  ------  ---------------------
 H                          cc-pVTZ                  6       14   3s2p1d


                                 NWChem SCF Module
                                 -----------------
 
 
                                        H6
 
 

  ao basis        = "ao basis"
  functions       =    84
  atoms           =     6
  closed shells   =     3
  open shells     =     0
  charge          =   0.00
  wavefunction    = RHF 
  input vectors   = atomic
  output vectors  = ./H6.movecs
  use symmetry    = F
  symmetry adapt  = F


 Summary of "ao basis" -> "ao basis" (spherical)
 ------------------------------------------------------------------------------
       Tag                 Description            Shells   Functions and Types
 ---------------- ------------------------------  ------  ---------------------
 H                          cc-pVTZ                  6       14   3s2p1d



 Forming initial guess at       0.4s

 
      Superposition of Atomic Density Guess
      -------------------------------------
 
 Sum of atomic energies:          -2.99885518
 
      Non-variational initial energy
      ------------------------------

 Total energy =      -2.573395
 1-e energy   =     -10.925645
 2-e energy   =       4.286830
 HOMO         =      -0.286819
 LUMO         =      -0.062126
 

 Starting SCF solution at       0.5s



 ----------------------------------------------
         Quadratically convergent ROHF

 Convergence threshold     :          1.000E-08
 Maximum no. of iterations :           30
 Final Fock-matrix accuracy:          1.000E-10
 ----------------------------------------------


              iter       energy          gnorm     gmax       time
             ----- ------------------- --------- --------- --------
                 1       -3.1865822639  2.13D-01  1.17D-01      0.7
                 2       -3.1961379472  6.08D-02  3.32D-02      1.0
                 3       -3.1966901005  2.91D-03  1.26D-03      1.4
                 4       -3.1966915144  1.25D-06  6.52D-07      1.9
                 5       -3.1966915144  7.65D-10  3.08D-10      2.5


       Final RHF  results 
       ------------------ 

         Total SCF energy =     -3.196691514401
      One-electron energy =    -11.384373512691
      Two-electron energy =      4.122261437542
 Nuclear repulsion energy =      4.065420560748

        Time for solution =      2.0s


             Final eigenvalues
             -----------------

              1      
    1   -0.6409
    2   -0.5406
    3   -0.3884
    4    0.0136
    5    0.1805
    6    0.2967
    7    0.3326
    8    0.4174
    9    0.4529
   10    0.5660
   11    0.5660
   12    0.6038
   13    0.6137
 
                       ROHF Final Molecular Orbital Analysis
                       -------------------------------------
 
 Vector    1  Occ=2.000000D+00  E=-6.409245D-01
              MO Center=  1.1D-16,  2.3D-17, -9.5D-13, r^2= 2.6D+00
   Bfn.  Coefficient  Atom+Function         Bfn.  Coefficient  Atom+Function  
  ----- ------------  ---------------      ----- ------------  ---------------
    30      0.209126  3 H  s                 44      0.209126  4 H  s          
    16      0.155114  2 H  s                 58      0.155114  5 H  s          
 
 Vector    2  Occ=2.000000D+00  E=-5.405877D-01
              MO Center=  8.4D-17, -8.1D-18,  1.5D-13, r^2= 5.4D+00
   Bfn.  Coefficient  Atom+Function         Bfn.  Coefficient  Atom+Function  
  ----- ------------  ---------------      ----- ------------  ---------------
    16      0.209904  2 H  s                 58     -0.209904  5 H  s          
     2      0.176900  1 H  s                 17      0.176981  2 H  s          
    59     -0.176981  5 H  s                 72     -0.176900  6 H  s          
 
 Vector    3  Occ=2.000000D+00  E=-3.884131D-01
              MO Center= -2.5D-16,  6.6D-17,  7.6D-13, r^2= 5.3D+00
   Bfn.  Coefficient  Atom+Function         Bfn.  Coefficient  Atom+Function  
  ----- ------------  ---------------      ----- ------------  ---------------
    31     -0.216701  3 H  s                 45     -0.216701  4 H  s          
     2      0.199190  1 H  s                 30     -0.199222  3 H  s          
    44     -0.199222  4 H  s                 72      0.199190  6 H  s          
     3      0.176443  1 H  s                 73      0.176443  6 H  s          
    17      0.172070  2 H  s                 59      0.172070  5 H  s          
 
 Vector    4  Occ=0.000000D+00  E= 1.358989D-02
              MO Center= -1.2D-17, -4.6D-18, -1.5D-12, r^2= 7.1D+00
   Bfn.  Coefficient  Atom+Function         Bfn.  Coefficient  Atom+Function  
  ----- ------------  ---------------      ----- ------------  ---------------
     3      0.688369  1 H  s                 73     -0.688369  6 H  s          
    17     -0.537017  2 H  s                 59      0.537017  5 H  s          
    30     -0.199212  3 H  s                 44      0.199212  4 H  s          
 
 Vector    5  Occ=0.000000D+00  E= 1.804757D-01
              MO Center=  1.2D-16,  3.6D-16,  5.3D-11, r^2= 1.1D+01
   Bfn.  Coefficient  Atom+Function         Bfn.  Coefficient  Atom+Function  
  ----- ------------  ---------------      ----- ------------  ---------------
    17      1.575498  2 H  s                 59      1.575498  5 H  s          
     3     -1.385707  1 H  s                 73     -1.385707  6 H  s          
    31     -0.692112  3 H  s                 45     -0.692112  4 H  s          
    16      0.192923  2 H  s                 58      0.192923  5 H  s          
 
 Vector    6  Occ=0.000000D+00  E= 2.967235D-01
              MO Center= -3.8D-17, -1.0D-17, -5.6D-11, r^2= 1.3D+01
   Bfn.  Coefficient  Atom+Function         Bfn.  Coefficient  Atom+Function  
  ----- ------------  ---------------      ----- ------------  ---------------
    31      4.394906  3 H  s                 45     -4.394906  4 H  s          
    17     -3.217290  2 H  s                 59      3.217290  5 H  s          
     3      2.024747  1 H  s                 73     -2.024747  6 H  s          
     2     -0.523013  1 H  s                 72      0.523013  6 H  s          
 
 Vector    7  Occ=0.000000D+00  E= 3.326401D-01
              MO Center=  1.3D-17, -2.3D-16,  1.6D-11, r^2= 4.8D+00
   Bfn.  Coefficient  Atom+Function         Bfn.  Coefficient  Atom+Function  
  ----- ------------  ---------------      ----- ------------  ---------------
    30     -0.693409  3 H  s                 44     -0.693409  4 H  s          
    17      0.676858  2 H  s                 59      0.676858  5 H  s          
    31      0.468595  3 H  s                 45      0.468595  4 H  s          
    16     -0.442924  2 H  s                 58     -0.442924  5 H  s          
     2     -0.269451  1 H  s                 72     -0.269451  6 H  s          
 
 Vector    8  Occ=0.000000D+00  E= 4.174279D-01
              MO Center= -5.0D-16, -7.5D-17,  5.1D-12, r^2= 6.8D+00
   Bfn.  Coefficient  Atom+Function         Bfn.  Coefficient  Atom+Function  
  ----- ------------  ---------------      ----- ------------  ---------------
    17      3.370108  2 H  s                 59     -3.370108  5 H  s          
    31     -2.675155  3 H  s                 45      2.675155  4 H  s          
     3     -0.951602  1 H  s                 73      0.951602  6 H  s          
    16     -0.892305  2 H  s                 58      0.892305  5 H  s          
     2     -0.393710  1 H  s                 30     -0.392629  3 H  s          
 
 Vector    9  Occ=0.000000D+00  E= 4.528653D-01
              MO Center=  3.6D-16, -8.8D-17,  3.8D-13, r^2= 9.2D+00
   Bfn.  Coefficient  Atom+Function         Bfn.  Coefficient  Atom+Function  
  ----- ------------  ---------------      ----- ------------  ---------------
     3      1.057030  1 H  s                 73      1.057030  6 H  s          
     2     -0.923293  1 H  s                 72     -0.923293  6 H  s          
    31     -0.552971  3 H  s                 45     -0.552971  4 H  s          
    30      0.369556  3 H  s                 44      0.369556  4 H  s          
    16      0.202202  2 H  s                 58      0.202202  5 H  s          
 
 Vector   10  Occ=0.000000D+00  E= 5.659865D-01
              MO Center=  1.1D-16,  4.8D-16, -2.6D-12, r^2= 2.8D+00
   Bfn.  Coefficient  Atom+Function         Bfn.  Coefficient  Atom+Function  
  ----- ------------  ---------------      ----- ------------  ---------------
    36      0.398043  3 H  py                50      0.398043  4 H  py         
    22      0.312660  2 H  py                64      0.312660  5 H  py         
     8      0.177595  1 H  py                78      0.177595  6 H  py         
 
 Vector   11  Occ=0.000000D+00  E= 5.659865D-01
              MO Center=  1.7D-16, -7.8D-17, -2.6D-12, r^2= 2.8D+00
   Bfn.  Coefficient  Atom+Function         Bfn.  Coefficient  Atom+Function  
  ----- ------------  ---------------      ----- ------------  ---------------
    35      0.398043  3 H  px                49      0.398043  4 H  px         
    21      0.312660  2 H  px                63      0.312660  5 H  px         
     7      0.177595  1 H  px                77      0.177595  6 H  px         
 
 Vector   12  Occ=0.000000D+00  E= 6.037817D-01
              MO Center= -2.9D-16, -6.3D-16, -2.5D-10, r^2= 6.9D+00
   Bfn.  Coefficient  Atom+Function         Bfn.  Coefficient  Atom+Function  
  ----- ------------  ---------------      ----- ------------  ---------------
    17      3.599415  2 H  s                 59      3.599415  5 H  s          
    31     -2.132006  3 H  s                 45     -2.132006  4 H  s          
     3     -1.435169  1 H  s                 73     -1.435169  6 H  s          
    16     -1.046502  2 H  s                 58     -1.046502  5 H  s          
    30      0.724447  3 H  s                 44      0.724447  4 H  s          
 
 Vector   13  Occ=0.000000D+00  E= 6.136544D-01
              MO Center= -8.8D-17, -4.8D-17,  2.7D-10, r^2= 6.8D+00
   Bfn.  Coefficient  Atom+Function         Bfn.  Coefficient  Atom+Function  
  ----- ------------  ---------------      ----- ------------  ---------------
    31      2.410731  3 H  s                 45     -2.410731  4 H  s          
     3     -0.737962  1 H  s                 73      0.737962  6 H  s          
    16     -0.711810  2 H  s                 58      0.711811  5 H  s          
     2      0.704645  1 H  s                 72     -0.704645  6 H  s          
    17     -0.293708  2 H  s                 59      0.293708  5 H  s          
 

 center of mass
 --------------
 x =   0.00000000 y =   0.00000000 z =  -0.00000000

 moments of inertia (a.u.)
 ------------------
          80.770118975000           0.000000000000           0.000000000000
           0.000000000000          80.770118975000           0.000000000000
           0.000000000000           0.000000000000           0.000000000000
 
  Mulliken analysis of the total density
  --------------------------------------

    Atom       Charge   Shell Charges
 -----------   ------   -------------------------------------------------------
    1 H    1     0.96   0.17  0.47  0.30  0.00  0.01  0.00
    2 H    1     1.06   0.18  0.50  0.35  0.00  0.02  0.00
    3 H    1     0.97   0.18  0.51  0.25  0.00  0.03  0.00
    4 H    1     0.97   0.18  0.51  0.25  0.00  0.03  0.00
    5 H    1     1.06   0.18  0.50  0.35  0.00  0.02  0.00
    6 H    1     0.96   0.17  0.47  0.30  0.00  0.01  0.00
 
       Multipole analysis of the density wrt the origin
       ------------------------------------------------
 
     L   x y z        total         open         nuclear
     -   - - -        -----         ----         -------
     0   0 0 0     -0.000000      0.000000      6.000000
 
     1   1 0 0      0.000000      0.000000      0.000000
     1   0 1 0     -0.000000      0.000000      0.000000
     1   0 0 1      0.000000      0.000000     -0.000000
 
     2   2 0 0     -5.567088      0.000000      0.000000
     2   1 1 0     -0.000000      0.000000      0.000000
     2   1 0 1     -0.000000      0.000000      0.000000
     2   0 2 0     -5.567088      0.000000      0.000000
     2   0 1 1     -0.000000      0.000000      0.000000
     2   0 0 2     -3.918737      0.000000     80.143000
 
                   NWChem Extensible Many-Electron Theory Module
                   ---------------------------------------------
 
              ======================================================
                   This portion of the program was automatically
                  generated by a Tensor Contraction Engine (TCE).
                  The development of this portion of the program
                 and TCE was supported by US Department of Energy,
                Office of Science, Office of Basic Energy Science.
                      TCE is a product of Battelle and PNNL.
              Please cite: S.Hirata, J.Phys.Chem.A 107, 9887 (2003).
              ======================================================
 
                                        H6
 
 
            General Information
            -------------------
      Number of processors :     1
         Wavefunction type : Restricted Hartree-Fock
          No. of electrons :     6
           Alpha electrons :     3
            Beta electrons :     3
           No. of orbitals :   168
            Alpha orbitals :    84
             Beta orbitals :    84
        Alpha frozen cores :     0
         Beta frozen cores :     0
     Alpha frozen virtuals :     0
      Beta frozen virtuals :     0
         Spin multiplicity : singlet 
    Number of AO functions :    84
       Number of AO shells :    36
        Use of symmetry is : off
      Symmetry adaption is : off
         Schwarz screening : 0.10D-09
 
          Correlation Information
          -----------------------
          Calculation type : Coupled-cluster singles & doubles                           
   Perturbative correction : none                                                        
            Max iterations :      300
        Residual threshold : 0.10D-07
     T(0) DIIS level shift : 0.00D+00
     L(0) DIIS level shift : 0.00D+00
     T(1) DIIS level shift : 0.00D+00
     L(1) DIIS level shift : 0.00D+00
     T(R) DIIS level shift : 0.00D+00
     T(I) DIIS level shift : 0.00D+00
   CC-T/L Amplitude update :  5-th order DIIS
                I/O scheme : Global Array Library
        L-threshold :  0.10D-07
        EOM-threshold :  0.10D-07
 no EOMCCSD initial starts read in
 TCE RESTART OPTIONS
 READ_INT:   F
 WRITE_INT:  F
 READ_TA:    F
 WRITE_TA:   F
 READ_XA:    F
 WRITE_XA:   F
 READ_IN3:   F
 WRITE_IN3:  F
 SLICE:      F
 D4D5:       F
 quantumc:   F
 qrotation:  F
 pwtce:      F
 qducc:      T
 nacto:                          0
 nrotv:                          0
 nrot:                           0
 
            Memory Information
            ------------------
          Available GA space size is    5368702064 doubles
          Available MA space size is    5368706460 doubles
 
 Maximum block size        32 doubles

 tile_dim =     27

 Block   Spin    Irrep     Size     Offset   Alpha
 -------------------------------------------------
   1    alpha     a      3 doubles       0       1
   2    beta      a      3 doubles       3       1
   3    alpha     a     27 doubles       6       3
   4    alpha     a     27 doubles      33       4
   5    alpha     a     27 doubles      60       5
   6    beta      a     27 doubles      87       3
   7    beta      a     27 doubles     114       4
   8    beta      a     27 doubles     141       5

 Global array virtual files algorithm will be used

 Parallel file system coherency ......... OK
 
 Fock matrix recomputed
 1-e file size   =             7056
 1-e file name   = ./H6.f1
 Cpu & wall time / sec            0.1            0.1
 4-electron integrals stored in orbital form
 
 v2    file size   =         12304143
 4-index algorithm nr.  13 is used
 imaxsize =       30
 imaxsize ichop =        0
 Cpu & wall time / sec            5.2            5.2
 T1-number-of-tasks                     3
 
 t1 file size   =              243
 t1 file name   = ./H6.t1
 t1 file handle =       -998
 T2-number-of-boxes                    15
 
 t2 file size   =            98415
 t2 file name   = ./H6.t2
 t2 file handle =       -996
CCSD iterations
 ---------------------------------------------------------
 Iter          Residuum       Correlation     Cpu    Wall 
 ---------------------------------------------------------
NEW TASK SCHEDULING
CCSD_T1_NTS --- OK
CCSD_T2_NTS --- OK
    1   0.1318115489847  -0.1197861806877     0.6     0.6
    2   0.0518779897393  -0.1403559751109     0.6     0.6
    3   0.0254949934248  -0.1476508900744     0.6     0.6
    4   0.0140994146181  -0.1507072256106     0.6     0.6
    5   0.0084134602669  -0.1522173486119     0.6     0.6
 MICROCYCLE DIIS UPDATE:                     5                     5
    6   0.0026158616627  -0.1540365436251     0.6     0.6
    7   0.0015792514184  -0.1540278216311     0.6     0.6
    8   0.0009731452351  -0.1540399925429     0.6     0.6
    9   0.0006797508733  -0.1540490581941     0.6     0.6
   10   0.0004581626441  -0.1540622015274     0.6     0.6
 MICROCYCLE DIIS UPDATE:                    10                     5
   11   0.0000835703869  -0.1540922642848     0.6     0.6
   12   0.0000347135903  -0.1540997961050     0.6     0.6
   13   0.0000186441616  -0.1541038123820     0.6     0.6
   14   0.0000105504939  -0.1541055638759     0.5     0.5
   15   0.0000063196634  -0.1541065384915     0.5     0.5
 MICROCYCLE DIIS UPDATE:                    15                     5
   16   0.0000019314231  -0.1541077371931     0.5     0.5
   17   0.0000012352982  -0.1541077645271     0.6     0.6
   18   0.0000007678372  -0.1541077790892     0.5     0.5
   19   0.0000005407212  -0.1541077873609     0.6     0.6
   20   0.0000003648893  -0.1541077985290     0.5     0.5
 MICROCYCLE DIIS UPDATE:                    20                     5
   21   0.0000000647278  -0.1541078221026     0.6     0.6
   22   0.0000000274944  -0.1541078292796     0.6     0.6
   23   0.0000000142685  -0.1541078322136     0.5     0.5
   24   0.0000000079084  -0.1541078335813     0.5     0.5
 -----------------------------------------------------------------
 Iterations converged
 CCSD correlation energy / hartree =        -0.154107833581346
 CCSD total energy / hartree       =        -3.350799347982723

 Singles contributions
     4a   (alpha) ---     2a   (alpha)       -0.0217917726
     9a   (alpha) ---     3a   (alpha)       -0.0224659473

 Doubles contributions
     4a   (alpha)     5a   (alpha) ---     2a   (alpha)     3a   (alpha)        0.0350442368
     4a   (alpha)     5a   (alpha) ---     3a   (alpha)     2a   (alpha)       -0.0350442368
     5a   (alpha)     4a   (alpha) ---     2a   (alpha)     3a   (alpha)       -0.0350442368
     5a   (alpha)     4a   (alpha) ---     3a   (alpha)     2a   (alpha)        0.0350442368
     4a   (alpha)     4a   (beta ) ---     1a   (alpha)     1a   (beta )       -0.0432296116
     4a   (alpha)     4a   (beta ) ---     2a   (alpha)     2a   (beta )       -0.0652050032
     4a   (alpha)     4a   (beta ) ---     3a   (alpha)     3a   (beta )       -0.1741280052
     4a   (alpha)     5a   (beta ) ---     1a   (alpha)     2a   (beta )        0.0267815692
     4a   (alpha)     5a   (beta ) ---     2a   (alpha)     3a   (beta )        0.0624072009
     4a   (alpha)     5a   (beta ) ---     3a   (alpha)     2a   (beta )        0.0273629641
     4a   (alpha)     6a   (beta ) ---     1a   (alpha)     3a   (beta )       -0.0232731650
     4a   (alpha)     6a   (beta ) ---     3a   (alpha)     3a   (beta )        0.0501692291
     4a   (alpha)     7a   (beta ) ---     2a   (alpha)     3a   (beta )        0.0231746409
     4a   (alpha)     9a   (beta ) ---     1a   (alpha)     2a   (beta )        0.0247463810
     4a   (alpha)     9a   (beta ) ---     2a   (alpha)     1a   (beta )        0.0206987882
     4a   (alpha)     9a   (beta ) ---     2a   (alpha)     3a   (beta )        0.0417246961
     4a   (alpha)     9a   (beta ) ---     3a   (alpha)     2a   (beta )        0.0315420330
     4a   (alpha)    12a   (beta ) ---     2a   (alpha)     3a   (beta )       -0.0247539680
     4a   (alpha)    13a   (beta ) ---     1a   (alpha)     3a   (beta )       -0.0418366739
     4a   (alpha)    13a   (beta ) ---     2a   (alpha)     2a   (beta )       -0.0270063008
     4a   (alpha)    13a   (beta ) ---     3a   (alpha)     1a   (beta )       -0.0241412470
     4a   (alpha)    18a   (beta ) ---     1a   (alpha)     3a   (beta )        0.0288411054
     5a   (alpha)     4a   (beta ) ---     2a   (alpha)     1a   (beta )        0.0267815692
     5a   (alpha)     4a   (beta ) ---     2a   (alpha)     3a   (beta )        0.0273629641
     5a   (alpha)     4a   (beta ) ---     3a   (alpha)     2a   (beta )        0.0624072009
     5a   (alpha)     5a   (beta ) ---     1a   (alpha)     1a   (beta )       -0.0219672882
     5a   (alpha)     5a   (beta ) ---     2a   (alpha)     2a   (beta )       -0.0419636778
     5a   (alpha)     5a   (beta ) ---     3a   (alpha)     3a   (beta )       -0.0375640466
     5a   (alpha)     9a   (beta ) ---     2a   (alpha)     2a   (beta )       -0.0234260155
     5a   (alpha)    13a   (beta ) ---     1a   (alpha)     2a   (beta )        0.0227683014
     5a   (alpha)    13a   (beta ) ---     2a   (alpha)     3a   (beta )        0.0209203120
     6a   (alpha)     4a   (beta ) ---     3a   (alpha)     1a   (beta )       -0.0232731650
     6a   (alpha)     4a   (beta ) ---     3a   (alpha)     3a   (beta )        0.0501692291
     6a   (alpha)     6a   (beta ) ---     3a   (alpha)     3a   (beta )       -0.0282756670
     7a   (alpha)     4a   (beta ) ---     3a   (alpha)     2a   (beta )        0.0231746409
     9a   (alpha)     4a   (beta ) ---     1a   (alpha)     2a   (beta )        0.0206987882
     9a   (alpha)     4a   (beta ) ---     2a   (alpha)     1a   (beta )        0.0247463810
     9a   (alpha)     4a   (beta ) ---     2a   (alpha)     3a   (beta )        0.0315420330
     9a   (alpha)     4a   (beta ) ---     3a   (alpha)     2a   (beta )        0.0417246961
     9a   (alpha)     5a   (beta ) ---     2a   (alpha)     2a   (beta )       -0.0234260155
     9a   (alpha)     9a   (beta ) ---     2a   (alpha)     2a   (beta )       -0.0239821426
     9a   (alpha)     9a   (beta ) ---     3a   (alpha)     3a   (beta )       -0.0202969798
    10a   (alpha)    10a   (beta ) ---     1a   (alpha)     1a   (beta )       -0.0222117814
    11a   (alpha)    11a   (beta ) ---     1a   (alpha)     1a   (beta )       -0.0222117814
    12a   (alpha)     4a   (beta ) ---     3a   (alpha)     2a   (beta )       -0.0247539680
    13a   (alpha)     4a   (beta ) ---     1a   (alpha)     3a   (beta )       -0.0241412470
    13a   (alpha)     4a   (beta ) ---     2a   (alpha)     2a   (beta )       -0.0270063008
    13a   (alpha)     4a   (beta ) ---     3a   (alpha)     1a   (beta )       -0.0418366739
    13a   (alpha)     5a   (beta ) ---     2a   (alpha)     1a   (beta )        0.0227683014
    13a   (alpha)     5a   (beta ) ---     3a   (alpha)     2a   (beta )        0.0209203120
    13a   (alpha)    13a   (beta ) ---     2a   (alpha)     2a   (beta )       -0.0213197940
    18a   (alpha)     4a   (beta ) ---     3a   (alpha)     1a   (beta )        0.0288411054
 Ground state specification:
 exp(T)|Ref>~(1+T)|Ref>
 ------- a(p)+/a(q) strings ----------

 singles norm

 doubles norm

 Reference string
  0.985175984174638      :(1a)+ (2a)+ (3a)+ (1b)+ (2b)+ (3b)+ |0>

 Singles strings

 Doubles strings
 -0.171546728926942      :(4a)+ (4b)+ (3b)  (3a)  (1a)+ (2a)+ (3a)+ (1b)+ (2b)+ 
 (3b)+ |0>
 -------------------------------------
 enrep_tce =    4.06542056074766     
  EHF(total)         =        -3.19669151
  Shift (HFtot-HFA)  =         0.00000000
 ALL OCCUPIED ORBITALS ARE ACTIVE IN DUCC --> NO SHIFT
 Number of active orbitals                     6
 Number of active alpha electrons                     3
 Number of active beta electrons                     3
  nos                      6
  nvs                    162
 noas                      3
 nobs                      3
 nvas                     81
 nvbs                     81
 nactv                      3
 DUCC MODEL =                      6
 NONHF =  T
 F-T1 correlation    =   5.651694297566929E-012
 V-T1-T1 correlation =   6.305596984717583E-005
 V-T2 correlation    =  -0.154170889549706     
 Total correlation   =  -0.154107833574207     
 F-T1(Ext) correlation         =   7.170059047024095E-012
 V-T1(Ext)-T1(Ext) correlation =   6.945037623915056E-005
 V-T2(Ext) correlation         =  -0.114702678385118     
 Total Ext correlation         =  -0.114633228001709     
1-BODY TIME =  566.478 SECONDS.
  HHHH TIME = 1107.604 SECONDS.
  PPPP TIME =   17.518 SECONDS.
  HHHP TIME =   64.904 SECONDS.
  PPPH TIME =   33.039 SECONDS.
  HPHP TIME =   67.899 SECONDS.
  HHPP TIME =   25.395 SECONDS.
 ONE-BODY UNITARY CHECK
 TWO-BODY UNITARY CHECK
 TWO-BODY ANTISYMMETRY CHECK
 TRANSFORMED ~FOCK~ MATRIX
    1    1        -0.6732733490
    1    3         0.0014853787
    1    5        -0.0026661608
    2    2        -0.5738041372
    2    4         0.0018432166
    2    6         0.0072623872
    3    1         0.0014853787
    3    3        -0.4232773906
    3    5        -0.0069402532
    4    2         0.0018432166
    4    4         0.0275089315
    4    6        -0.0037950191
    5    1        -0.0026661608
    5    3        -0.0069402532
    5    5         0.1899802807
    6    2         0.0072623872
    6    4        -0.0037950191
    6    6         0.3023844266
 begin_one_electron_integrals
    1    1        -2.0844515639
    1    3         0.1306497403
    1    5        -0.0667304933
    2    2        -1.8691817618
    2    4         0.1900952125
    2    6         0.0599688518
    3    1         0.1306497403
    3    3        -1.7531245463
    3    5        -0.1794290338
    4    2         0.1900952125
    4    4        -1.5130574944
    4    6         0.2774548947
    5    1        -0.0667304933
    5    3        -0.1794290338
    5    5        -1.1507717377
    6    2         0.0599688518
    6    4         0.2774548947
    6    6        -0.9351626823
 end_one_electron_integrals
 begin_two_electron_integrals
    1    1    1    1        0.3780256401
    1    1    1    3       -0.0662577406
    1    1    1    5        0.0069331690
    1    2    1    2        0.1125889210
    1    2    1    4       -0.0396242343
    1    2    1    6       -0.0016505040
    1    3    1    1       -0.0662577406
    1    3    1    3        0.0816499905
    1    3    1    5        0.0239326947
    1    4    1    2       -0.0396242343
    1    4    1    4        0.0616473662
    1    4    1    6       -0.0257289203
    1    5    1    1        0.0069331690
    1    5    1    3        0.0239326947
    1    5    1    5        0.0326962405
    1    6    1    2       -0.0016505040
    1    6    1    4       -0.0257289203
    1    6    1    6        0.0235075031
    1    1    2    2        0.3013181528
    1    1    2    4       -0.0637947248
    1    1    2    6       -0.0046762899
    1    2    2    1        0.1128505238
    1    2    2    3        0.0837241100
    1    2    2    5        0.0348130167
    1    3    2    2        0.0202442381
    1    3    2    4        0.0410823049
    1    3    2    6       -0.0290032064
    1    4    2    1       -0.0396663402
    1    4    2    3        0.0047588046
    1    4    2    5       -0.0311532266
    1    5    2    2        0.0301193085
    1    5    2    4       -0.0156661504
    1    5    2    6       -0.0134866933
    1    6    2    1       -0.0011894290
    1    6    2    3       -0.0203984613
    1    6    2    5       -0.0037178855
    1    1    3    1       -0.0662577406
    1    1    3    3        0.3127330253
    1    1    3    5        0.0630240831
    1    2    3    2        0.0858880056
    1    2    3    4        0.0578932700
    1    2    3    6       -0.0454840610
    1    3    3    1        0.0820992575
    1    3    3    3       -0.0196709873
    1    3    3    5       -0.0310835447
    1    4    3    2        0.0032811245
    1    4    3    4       -0.0063883650
    1    4    3    6        0.0178522970
    1    5    3    1        0.0234784220
    1    5    3    3        0.0003110093
    1    5    3    5        0.0060401777
    1    6    3    2       -0.0197873092
    1    6    3    4        0.0023986379
    1    6    3    6        0.0023499694
    1    1    4    2       -0.0637947248
    1    1    4    4        0.2979611413
    1    1    4    6       -0.0752510290
    1    2    4    1       -0.0396663402
    1    2    4    3        0.0603814680
    1    2    4    5       -0.0681991205
    1    3    4    2        0.0414883567
    1    3    4    4       -0.0156290463
    1    3    4    6        0.0281951747
    1    4    4    1        0.0564110758
    1    4    4    3       -0.0077812710
    1    4    4    5        0.0034110196
    1    5    4    2       -0.0138371389
    1    5    4    4        0.0053859230
    1    5    4    6        0.0014264710
    1    6    4    1       -0.0223203281
    1    6    4    3        0.0032789198
    1    6    4    5        0.0069482683
    1    1    5    1        0.0069331690
    1    1    5    3        0.0630240831
    1    1    5    5        0.2385441314
    1    2    5    2        0.0345613846
    1    2    5    4       -0.0677320976
    1    2    5    6       -0.0430129412
    1    3    5    1        0.0234784220
    1    3    5    3       -0.0330829771
    1    3    5    5        0.0071254076
    1    4    5    2       -0.0282685814
    1    4    5    4        0.0035327115
    1    4    5    6        0.0045900842
    1    5    5    1        0.0271483014
    1    5    5    3        0.0063056963
    1    5    5    5        0.0106015132
    1    6    5    2       -0.0027597051
    1    6    5    4        0.0069381548
    1    6    5    6       -0.0005864284
    1    1    6    2       -0.0046762899
    1    1    6    4       -0.0752510290
    1    1    6    6        0.2161407043
    1    2    6    1       -0.0011894290
    1    2    6    3       -0.0468835544
    1    2    6    5       -0.0427139140
    1    3    6    2       -0.0297010915
    1    3    6    4        0.0277941024
    1    3    6    6        0.0020926682
    1    4    6    1       -0.0223203281
    1    4    6    3        0.0180578079
    1    4    6    5        0.0047825548
    1    5    6    2       -0.0111751013
    1    5    6    4        0.0017318663
    1    5    6    6        0.0006684176
    1    6    6    1        0.0190579923
    1    6    6    3        0.0010969495
    1    6    6    5       -0.0006371011
    2    1    1    2        0.1128505238
    2    1    1    4       -0.0396663402
    2    1    1    6       -0.0011894290
    2    2    1    1        0.3013181528
    2    2    1    3        0.0202442381
    2    2    1    5        0.0301193085
    2    3    1    2        0.0837241100
    2    3    1    4        0.0047588046
    2    3    1    6       -0.0203984613
    2    4    1    1       -0.0637947248
    2    4    1    3        0.0410823049
    2    4    1    5       -0.0156661504
    2    5    1    2        0.0348130167
    2    5    1    4       -0.0311532266
    2    5    1    6       -0.0037178855
    2    6    1    1       -0.0046762899
    2    6    1    3       -0.0290032064
    2    6    1    5       -0.0134866933
    2    1    2    1        0.1125889210
    2    1    2    3        0.0858880056
    2    1    2    5        0.0345613846
    2    2    2    2        0.3227915532
    2    2    2    4       -0.0163025023
    2    2    2    6       -0.0366822166
    2    3    2    1        0.0858880056
    2    3    2    3        0.0987797473
    2    3    2    5        0.0146512889
    2    4    2    2       -0.0163025023
    2    4    2    4        0.0650520593
    2    4    2    6       -0.0199214335
    2    5    2    1        0.0345613846
    2    5    2    3        0.0146512889
    2    5    2    5        0.0437303622
    2    6    2    2       -0.0366822166
    2    6    2    4       -0.0199214335
    2    6    2    6        0.0292470281
    2    1    3    2        0.0837241100
    2    1    3    4        0.0603814680
    2    1    3    6       -0.0468835544
    2    2    3    1        0.0202442381
    2    2    3    3        0.2909459413
    2    2    3    5        0.0264956276
    2    3    3    2        0.0990915930
    2    3    3    4        0.0564587586
    2    3    3    6       -0.0336043576
    2    4    3    1        0.0414883567
    2    4    3    3       -0.0137838128
    2    4    3    5       -0.0438500859
    2    5    3    2        0.0137743894
    2    5    3    4       -0.0125819256
    2    5    3    6       -0.0147058948
    2    6    3    1       -0.0297010915
    2    6    3    3       -0.0207327274
    2    6    3    5        0.0031848084
    2    1    4    1       -0.0396242343
    2    1    4    3        0.0578932700
    2    1    4    5       -0.0677320976
    2    2    4    2       -0.0163025023
    2    2    4    4        0.2808745233
    2    2    4    6       -0.0451102439
    2    3    4    1        0.0032811245
    2    3    4    3        0.0587756458
    2    3    4    5       -0.0714137092
    2    4    4    2        0.0592778229
    2    4    4    4       -0.0157136425
    2    4    4    6        0.0185850945
    2    5    4    1       -0.0282685814
    2    5    4    3       -0.0088777543
    2    5    4    5       -0.0062927928
    2    6    4    2       -0.0159220081
    2    6    4    4       -0.0146744622
    2    6    4    6        0.0035031525
    2    1    5    2        0.0348130167
    2    1    5    4       -0.0681991205
    2    1    5    6       -0.0427139140
    2    2    5    1        0.0301193085
    2    2    5    3        0.0264956276
    2    2    5    5        0.2455573150
    2    3    5    2        0.0137743894
    2    3    5    4       -0.0708789171
    2    3    5    6       -0.0441707465
    2    4    5    1       -0.0138371389
    2    4    5    3       -0.0381319110
    2    4    5    5       -0.0069811876
    2    5    5    2        0.0370375859
    2    5    5    4       -0.0072330662
    2    5    5    6        0.0007636173
    2    6    5    1       -0.0111751013
    2    6    5    3        0.0017905479
    2    6    5    5       -0.0132822672
    2    1    6    1       -0.0016505040
    2    1    6    3       -0.0454840610
    2    1    6    5       -0.0430129412
    2    2    6    2       -0.0366822166
    2    2    6    4       -0.0451102439
    2    2    6    6        0.2188123674
    2    3    6    1       -0.0197873092
    2    3    6    3       -0.0364077759
    2    3    6    5       -0.0435710662
    2    4    6    2       -0.0159220081
    2    4    6    4        0.0178886093
    2    4    6    6        0.0038387707
    2    5    6    1       -0.0027597051
    2    5    6    3       -0.0145125268
    2    5    6    5       -0.0002298267
    2    6    6    2        0.0233509293
    2    6    6    4        0.0035877194
    2    6    6    6       -0.0101540268
    3    1    1    1       -0.0662577406
    3    1    1    3        0.0820992575
    3    1    1    5        0.0234784220
    3    2    1    2        0.0858880056
    3    2    1    4        0.0032811245
    3    2    1    6       -0.0197873092
    3    3    1    1        0.3127330253
    3    3    1    3       -0.0196709873
    3    3    1    5        0.0003110093
    3    4    1    2        0.0578932700
    3    4    1    4       -0.0063883650
    3    4    1    6        0.0023986379
    3    5    1    1        0.0630240831
    3    5    1    3       -0.0310835447
    3    5    1    5        0.0060401777
    3    6    1    2       -0.0454840610
    3    6    1    4        0.0178522970
    3    6    1    6        0.0023499694
    3    1    2    2        0.0202442381
    3    1    2    4        0.0414883567
    3    1    2    6       -0.0297010915
    3    2    2    1        0.0837241100
    3    2    2    3        0.0990915930
    3    2    2    5        0.0137743894
    3    3    2    2        0.2909459413
    3    3    2    4       -0.0137838128
    3    3    2    6       -0.0207327274
    3    4    2    1        0.0603814680
    3    4    2    3        0.0564587586
    3    4    2    5       -0.0125819256
    3    5    2    2        0.0264956276
    3    5    2    4       -0.0438500859
    3    5    2    6        0.0031848084
    3    6    2    1       -0.0468835544
    3    6    2    3       -0.0336043576
    3    6    2    5       -0.0147058948
    3    1    3    1        0.0816499905
    3    1    3    3       -0.0196709873
    3    1    3    5       -0.0330829771
    3    2    3    2        0.0987797473
    3    2    3    4        0.0587756458
    3    2    3    6       -0.0364077759
    3    3    3    1       -0.0196709873
    3    3    3    3        0.3036800729
    3    3    3    5        0.0307021706
    3    4    3    2        0.0587756458
    3    4    3    4        0.0798224780
    3    4    3    6       -0.0387885884
    3    5    3    1       -0.0330829771
    3    5    3    3        0.0307021706
    3    5    3    5        0.0398380463
    3    6    3    2       -0.0364077759
    3    6    3    4       -0.0387885884
    3    6    3    6        0.0365844253
    3    1    4    2        0.0410823049
    3    1    4    4       -0.0156290463
    3    1    4    6        0.0277941024
    3    2    4    1        0.0047588046
    3    2    4    3        0.0564587586
    3    2    4    5       -0.0708789171
    3    3    4    2       -0.0137838128
    3    3    4    4        0.2828482734
    3    3    4    6       -0.0550752098
    3    4    4    1       -0.0077812710
    3    4    4    3        0.0671125517
    3    4    4    5       -0.0492872739
    3    5    4    2       -0.0381319110
    3    5    4    4        0.0191957524
    3    5    4    6       -0.0227808881
    3    6    4    1        0.0180578079
    3    6    4    3       -0.0313807155
    3    6    4    5        0.0183129746
    3    1    5    1        0.0239326947
    3    1    5    3       -0.0310835447
    3    1    5    5        0.0071254076
    3    2    5    2        0.0146512889
    3    2    5    4       -0.0714137092
    3    2    5    6       -0.0435710662
    3    3    5    1        0.0003110093
    3    3    5    3        0.0307021706
    3    3    5    5        0.2370713930
    3    4    5    2       -0.0088777543
    3    4    5    4       -0.0462508775
    3    4    5    6       -0.0359758024
    3    5    5    1        0.0063056963
    3    5    5    3        0.0374077732
    3    5    5    5        0.0091939636
    3    6    5    2       -0.0145125268
    3    6    5    4        0.0175562285
    3    6    5    6        0.0075576555
    3    1    6    2       -0.0290032064
    3    1    6    4        0.0281951747
    3    1    6    6        0.0020926682
    3    2    6    1       -0.0203984613
    3    2    6    3       -0.0336043576
    3    2    6    5       -0.0441707465
    3    3    6    2       -0.0207327274
    3    3    6    4       -0.0550752098
    3    3    6    6        0.2206425121
    3    4    6    1        0.0032789198
    3    4    6    3       -0.0313807155
    3    4    6    5       -0.0337797202
    3    5    6    2        0.0017905479
    3    5    6    4       -0.0211171666
    3    5    6    6        0.0019192495
    3    6    6    1        0.0010969495
    3    6    6    3        0.0312351371
    3    6    6    5        0.0071500490
    4    1    1    2       -0.0396663402
    4    1    1    4        0.0564110758
    4    1    1    6       -0.0223203281
    4    2    1    1       -0.0637947248
    4    2    1    3        0.0414883567
    4    2    1    5       -0.0138371389
    4    3    1    2        0.0603814680
    4    3    1    4       -0.0077812710
    4    3    1    6        0.0032789198
    4    4    1    1        0.2979611413
    4    4    1    3       -0.0156290463
    4    4    1    5        0.0053859230
    4    5    1    2       -0.0681991205
    4    5    1    4        0.0034110196
    4    5    1    6        0.0069482683
    4    6    1    1       -0.0752510290
    4    6    1    3        0.0281951747
    4    6    1    5        0.0014264710
    4    1    2    1       -0.0396242343
    4    1    2    3        0.0032811245
    4    1    2    5       -0.0282685814
    4    2    2    2       -0.0163025023
    4    2    2    4        0.0592778229
    4    2    2    6       -0.0159220081
    4    3    2    1        0.0578932700
    4    3    2    3        0.0587756458
    4    3    2    5       -0.0088777543
    4    4    2    2        0.2808745233
    4    4    2    4       -0.0157136425
    4    4    2    6       -0.0146744622
    4    5    2    1       -0.0677320976
    4    5    2    3       -0.0714137092
    4    5    2    5       -0.0062927928
    4    6    2    2       -0.0451102439
    4    6    2    4        0.0185850945
    4    6    2    6        0.0035031525
    4    1    3    2        0.0047588046
    4    1    3    4       -0.0077812710
    4    1    3    6        0.0180578079
    4    2    3    1        0.0410823049
    4    2    3    3       -0.0137838128
    4    2    3    5       -0.0381319110
    4    3    3    2        0.0564587586
    4    3    3    4        0.0671125517
    4    3    3    6       -0.0313807155
    4    4    3    1       -0.0156290463
    4    4    3    3        0.2828482734
    4    4    3    5        0.0191957524
    4    5    3    2       -0.0708789171
    4    5    3    4       -0.0492872739
    4    5    3    6        0.0183129746
    4    6    3    1        0.0277941024
    4    6    3    3       -0.0550752098
    4    6    3    5       -0.0227808881
    4    1    4    1        0.0616473662
    4    1    4    3       -0.0063883650
    4    1    4    5        0.0035327115
    4    2    4    2        0.0650520593
    4    2    4    4       -0.0157136425
    4    2    4    6        0.0178886093
    4    3    4    1       -0.0063883650
    4    3    4    3        0.0798224780
    4    3    4    5       -0.0462508775
    4    4    4    2       -0.0157136425
    4    4    4    4        0.2700315698
    4    4    4    6       -0.0416615870
    4    5    4    1        0.0035327115
    4    5    4    3       -0.0462508775
    4    5    4    5        0.0672185298
    4    6    4    2        0.0178886093
    4    6    4    4       -0.0416615870
    4    6    4    6        0.0353402034
    4    1    5    2       -0.0311532266
    4    1    5    4        0.0034110196
    4    1    5    6        0.0047825548
    4    2    5    1       -0.0156661504
    4    2    5    3       -0.0438500859
    4    2    5    5       -0.0069811876
    4    3    5    2       -0.0125819256
    4    3    5    4       -0.0492872739
    4    3    5    6       -0.0337797202
    4    4    5    1        0.0053859230
    4    4    5    3        0.0191957524
    4    4    5    5        0.2290701427
    4    5    5    2       -0.0072330662
    4    5    5    4        0.0674059918
    4    5    5    6        0.0495184134
    4    6    5    1        0.0017318663
    4    6    5    3       -0.0211171666
    4    6    5    5       -0.0111689227
    4    1    6    1       -0.0257289203
    4    1    6    3        0.0178522970
    4    1    6    5        0.0045900842
    4    2    6    2       -0.0199214335
    4    2    6    4        0.0185850945
    4    2    6    6        0.0038387707
    4    3    6    1        0.0023986379
    4    3    6    3       -0.0387885884
    4    3    6    5       -0.0359758024
    4    4    6    2       -0.0146744622
    4    4    6    4       -0.0416615870
    4    4    6    6        0.2126453674
    4    5    6    1        0.0069381548
    4    5    6    3        0.0175562285
    4    5    6    5        0.0495026292
    4    6    6    2        0.0035877194
    4    6    6    4        0.0355718506
    4    6    6    6       -0.0100619968
    5    1    1    1        0.0069331690
    5    1    1    3        0.0234784220
    5    1    1    5        0.0271483014
    5    2    1    2        0.0345613846
    5    2    1    4       -0.0282685814
    5    2    1    6       -0.0027597051
    5    3    1    1        0.0630240831
    5    3    1    3       -0.0330829771
    5    3    1    5        0.0063056963
    5    4    1    2       -0.0677320976
    5    4    1    4        0.0035327115
    5    4    1    6        0.0069381548
    5    5    1    1        0.2385441314
    5    5    1    3        0.0071254076
    5    5    1    5        0.0106015132
    5    6    1    2       -0.0430129412
    5    6    1    4        0.0045900842
    5    6    1    6       -0.0005864284
    5    1    2    2        0.0301193085
    5    1    2    4       -0.0138371389
    5    1    2    6       -0.0111751013
    5    2    2    1        0.0348130167
    5    2    2    3        0.0137743894
    5    2    2    5        0.0370375859
    5    3    2    2        0.0264956276
    5    3    2    4       -0.0381319110
    5    3    2    6        0.0017905479
    5    4    2    1       -0.0681991205
    5    4    2    3       -0.0708789171
    5    4    2    5       -0.0072330662
    5    5    2    2        0.2455573150
    5    5    2    4       -0.0069811876
    5    5    2    6       -0.0132822672
    5    6    2    1       -0.0427139140
    5    6    2    3       -0.0441707465
    5    6    2    5        0.0007636173
    5    1    3    1        0.0239326947
    5    1    3    3        0.0003110093
    5    1    3    5        0.0063056963
    5    2    3    2        0.0146512889
    5    2    3    4       -0.0088777543
    5    2    3    6       -0.0145125268
    5    3    3    1       -0.0310835447
    5    3    3    3        0.0307021706
    5    3    3    5        0.0374077732
    5    4    3    2       -0.0714137092
    5    4    3    4       -0.0462508775
    5    4    3    6        0.0175562285
    5    5    3    1        0.0071254076
    5    5    3    3        0.2370713930
    5    5    3    5        0.0091939636
    5    6    3    2       -0.0435710662
    5    6    3    4       -0.0359758024
    5    6    3    6        0.0075576555
    5    1    4    2       -0.0156661504
    5    1    4    4        0.0053859230
    5    1    4    6        0.0017318663
    5    2    4    1       -0.0311532266
    5    2    4    3       -0.0125819256
    5    2    4    5       -0.0072330662
    5    3    4    2       -0.0438500859
    5    3    4    4        0.0191957524
    5    3    4    6       -0.0211171666
    5    4    4    1        0.0034110196
    5    4    4    3       -0.0492872739
    5    4    4    5        0.0674059918
    5    5    4    2       -0.0069811876
    5    5    4    4        0.2290701427
    5    5    4    6       -0.0111689227
    5    6    4    1        0.0047825548
    5    6    4    3       -0.0337797202
    5    6    4    5        0.0495184134
    5    1    5    1        0.0326962405
    5    1    5    3        0.0060401777
    5    1    5    5        0.0106015132
    5    2    5    2        0.0437303622
    5    2    5    4       -0.0062927928
    5    2    5    6       -0.0002298267
    5    3    5    1        0.0060401777
    5    3    5    3        0.0398380463
    5    3    5    5        0.0091939636
    5    4    5    2       -0.0062927928
    5    4    5    4        0.0672185298
    5    4    5    6        0.0495026292
    5    5    5    1        0.0106015132
    5    5    5    3        0.0091939636
    5    5    5    5        0.2198643775
    5    6    5    2       -0.0002298267
    5    6    5    4        0.0495026292
    5    6    5    6        0.0517170947
    5    1    6    2       -0.0134866933
    5    1    6    4        0.0014264710
    5    1    6    6        0.0006684176
    5    2    6    1       -0.0037178855
    5    2    6    3       -0.0147058948
    5    2    6    5        0.0007636173
    5    3    6    2        0.0031848084
    5    3    6    4       -0.0227808881
    5    3    6    6        0.0019192495
    5    4    6    1        0.0069482683
    5    4    6    3        0.0183129746
    5    4    6    5        0.0495184134
    5    5    6    2       -0.0132822672
    5    5    6    4       -0.0111689227
    5    5    6    6        0.2020505870
    5    6    6    1       -0.0006371011
    5    6    6    3        0.0071500490
    5    6    6    5        0.0516896245
    5    6    6    6       -0.0000000001
    6    1    1    2       -0.0011894290
    6    1    1    4       -0.0223203281
    6    1    1    6        0.0190579923
    6    2    1    1       -0.0046762899
    6    2    1    3       -0.0297010915
    6    2    1    5       -0.0111751013
    6    3    1    2       -0.0468835544
    6    3    1    4        0.0180578079
    6    3    1    6        0.0010969495
    6    4    1    1       -0.0752510290
    6    4    1    3        0.0277941024
    6    4    1    5        0.0017318663
    6    5    1    2       -0.0427139140
    6    5    1    4        0.0047825548
    6    5    1    6       -0.0006371011
    6    6    1    1        0.2161407043
    6    6    1    3        0.0020926682
    6    6    1    5        0.0006684176
    6    1    2    1       -0.0016505040
    6    1    2    3       -0.0197873092
    6    1    2    5       -0.0027597051
    6    2    2    2       -0.0366822166
    6    2    2    4       -0.0159220081
    6    2    2    6        0.0233509293
    6    3    2    1       -0.0454840610
    6    3    2    3       -0.0364077759
    6    3    2    5       -0.0145125268
    6    4    2    2       -0.0451102439
    6    4    2    4        0.0178886093
    6    4    2    6        0.0035877194
    6    5    2    1       -0.0430129412
    6    5    2    3       -0.0435710662
    6    5    2    5       -0.0002298267
    6    6    2    2        0.2188123674
    6    6    2    4        0.0038387707
    6    6    2    6       -0.0101540268
    6    1    3    2       -0.0203984613
    6    1    3    4        0.0032789198
    6    1    3    6        0.0010969495
    6    2    3    1       -0.0290032064
    6    2    3    3       -0.0207327274
    6    2    3    5        0.0017905479
    6    3    3    2       -0.0336043576
    6    3    3    4       -0.0313807155
    6    3    3    6        0.0312351371
    6    4    3    1        0.0281951747
    6    4    3    3       -0.0550752098
    6    4    3    5       -0.0211171666
    6    5    3    2       -0.0441707465
    6    5    3    4       -0.0337797202
    6    5    3    6        0.0071500490
    6    6    3    1        0.0020926682
    6    6    3    3        0.2206425121
    6    6    3    5        0.0019192495
    6    1    4    1       -0.0257289203
    6    1    4    3        0.0023986379
    6    1    4    5        0.0069381548
    6    2    4    2       -0.0199214335
    6    2    4    4       -0.0146744622
    6    2    4    6        0.0035877194
    6    3    4    1        0.0178522970
    6    3    4    3       -0.0387885884
    6    3    4    5        0.0175562285
    6    4    4    2        0.0185850945
    6    4    4    4       -0.0416615870
    6    4    4    6        0.0355718506
    6    5    4    1        0.0045900842
    6    5    4    3       -0.0359758024
    6    5    4    5        0.0495026292
    6    6    4    2        0.0038387707
    6    6    4    4        0.2126453674
    6    6    4    6       -0.0100619968
    6    1    5    2       -0.0037178855
    6    1    5    4        0.0069482683
    6    1    5    6       -0.0006371011
    6    2    5    1       -0.0134866933
    6    2    5    3        0.0031848084
    6    2    5    5       -0.0132822672
    6    3    5    2       -0.0147058948
    6    3    5    4        0.0183129746
    6    3    5    6        0.0071500490
    6    4    5    1        0.0014264710
    6    4    5    3       -0.0227808881
    6    4    5    5       -0.0111689227
    6    5    5    2        0.0007636173
    6    5    5    4        0.0495184134
    6    5    5    6        0.0516896245
    6    6    5    1        0.0006684176
    6    6    5    3        0.0019192495
    6    6    5    5        0.2020505870
    6    6    5    6       -0.0000000001
    6    1    6    1        0.0235075031
    6    1    6    3        0.0023499694
    6    1    6    5       -0.0005864284
    6    2    6    2        0.0292470281
    6    2    6    4        0.0035031525
    6    2    6    6       -0.0101540268
    6    3    6    1        0.0023499694
    6    3    6    3        0.0365844253
    6    3    6    5        0.0075576555
    6    4    6    2        0.0035031525
    6    4    6    4        0.0353402034
    6    4    6    6       -0.0100619968
    6    5    6    1       -0.0005864284
    6    5    6    3        0.0075576555
    6    5    6    5        0.0517170947
    6    5    6    6       -0.0000000001
    6    6    6    2       -0.0101540268
    6    6    6    4       -0.0100619968
    6    6    6    5       -0.0000000001
    6    6    6    6        0.1972463054
 end_two_electron_integrals

 Task  times  cpu:     2031.7s     wall:     2031.7s
 
 
                                NWChem Input Module
                                -------------------
 
 
 Summary of allocated global arrays
-----------------------------------
  No active global arrays


MA_summarize_allocated_blocks: starting scan ...
MA_summarize_allocated_blocks: scan completed: 0 heap blocks, 0 stack blocks
MA usage statistics:

	allocation statistics:
					      heap	     stack
					      ----	     -----
	current number of blocks	         0	         0
	maximum number of blocks	        16	        42
	current total bytes		         0	         0
	maximum total bytes		     80104	20728605000
	maximum total K-bytes		        81	  20728605
	maximum total M-bytes		         1	     20729
 
 
                                     CITATION
                                     --------
                Please cite the following reference when publishing
                           results obtained with NWChem:
 
          E. Apra, E. J. Bylaska, W. A. de Jong, N. Govind, K. Kowalski,
       T. P. Straatsma, M. Valiev, H. J. J. van Dam, Y. Alexeev, J. Anchell,
       V. Anisimov, F. W. Aquino, R. Atta-Fynn, J. Autschbach, N. P. Bauman,
     J. C. Becca, D. E. Bernholdt, K. Bhaskaran-Nair, S. Bogatko, P. Borowski,
         J. Boschen, J. Brabec, A. Bruner, E. Cauet, Y. Chen, G. N. Chuev,
      C. J. Cramer, J. Daily, M. J. O. Deegan, T. H. Dunning Jr., M. Dupuis,
   K. G. Dyall, G. I. Fann, S. A. Fischer, A. Fonari, H. Fruchtl, L. Gagliardi,
      J. Garza, N. Gawande, S. Ghosh, K. Glaesemann, A. W. Gotz, J. Hammond,
       V. Helms, E. D. Hermes, K. Hirao, S. Hirata, M. Jacquelin, L. Jensen,
   B. G. Johnson, H. Jonsson, R. A. Kendall, M. Klemm, R. Kobayashi, V. Konkov,
      S. Krishnamoorthy, M. Krishnan, Z. Lin, R. D. Lins, R. J. Littlefield,
      A. J. Logsdail, K. Lopata, W. Ma, A. V. Marenich, J. Martin del Campo,
   D. Mejia-Rodriguez, J. E. Moore, J. M. Mullin, T. Nakajima, D. R. Nascimento,
    J. A. Nichols, P. J. Nichols, J. Nieplocha, A. Otero-de-la-Roza, B. Palmer,
    A. Panyala, T. Pirojsirikul, B. Peng, R. Peverati, J. Pittner, L. Pollack,
   R. M. Richard, P. Sadayappan, G. C. Schatz, W. A. Shelton, D. W. Silverstein,
   D. M. A. Smith, T. A. Soares, D. Song, M. Swart, H. L. Taylor, G. S. Thomas,
            V. Tipparaju, D. G. Truhlar, K. Tsemekhman, T. Van Voorhis,
      A. Vazquez-Mayagoitia, P. Verma, O. Villa, A. Vishnu, K. D. Vogiatzis,
        D. Wang, J. H. Weare, M. J. Williamson, T. L. Windus, K. Wolinski,
        A. T. Wong, Q. Wu, C. Yang, Q. Yu, M. Zacharias, Z. Zhang, Y. Zhao,
                                and R. J. Harrison
                        "NWChem: Past, present, and future
                         J. Chem. Phys. 152, 184102 (2020)
                               doi:10.1063/5.0004997
 
                                      AUTHORS
                                      -------
  E. Apra, E. J. Bylaska, N. Govind, K. Kowalski, M. Valiev, D. Mejia-Rodriguez,
       A. Kunitsa, N. P. Bauman, A. Panyala, W. A. de Jong, T. P. Straatsma,
   H. J. J. van Dam, D. Wang, T. L. Windus, J. Hammond, J. Autschbach, A. Woods,
    K. Bhaskaran-Nair, J. Brabec, K. Lopata, S. A. Fischer, S. Krishnamoorthy,
     M. Jacquelin, W. Ma, M. Klemm, O. Villa, Y. Chen, V. Anisimov, F. Aquino,
     S. Hirata, M. T. Hackler, E. Hermes, L. Jensen, J. E. Moore, J. C. Becca,
      V. Konjkov, T. Risthaus, M. Malagoli, A. Marenich, A. Otero-de-la-Roza,
        J. Mullin, P. Nichols, R. Peverati, J. Pittner, Y. Zhao, P.-D. Fan,
        A. Fonari, M. J. Williamson, R. J. Harrison, J. R. Rehr, M. Dupuis,
     D. Silverstein, D. M. A. Smith, J. Nieplocha, V. Tipparaju, M. Krishnan,
     B. E. Van Kuiken, A. Vazquez-Mayagoitia, M. Swart, Q. Wu, T. Van Voorhis,
     A. A. Auer, M. Nooijen, L. D. Crosby, E. Brown, G. Cisneros, G. I. Fann,
   H. Fruchtl, J. Garza, K. Hirao, R. A. Kendall, J. A. Nichols, K. Tsemekhman,
    K. Wolinski, J. Anchell, D. E. Bernholdt, P. Borowski, T. Clark, D. Clerc,
   H. Dachsel, M. J. O. Deegan, K. Dyall, D. Elwood, E. Glendening, M. Gutowski,
   A. C. Hess, J. Jaffe, B. G. Johnson, J. Ju, R. Kobayashi, R. Kutteh, Z. Lin,
   R. Littlefield, X. Long, B. Meng, T. Nakajima, S. Niu, L. Pollack, M. Rosing,
   K. Glaesemann, G. Sandrone, M. Stave, H. Taylor, G. Thomas, J. H. van Lenthe,
                               A. T. Wong, Z. Zhang.

 Total times  cpu:     2032.1s     wall:     2032.1s
