 argument  1 = input.nw
  NWChem w/ OpenMP: maximum threads =    1
 


============================== echo of input deck ==============================

echo
start H6
title "H6"

memory total 80 gb

geometry units bohr
symmetry c1
H 0 0 0
H 0 0 2.27
H 0 0 4.54
H 0 0 6.81
H 0 0 9.08
H 0 0 11.35
end

basis spherical
  * library cc-pVTZ
end

scf
thresh 1e-8
end

tce
  2eorb
  2emet 13
  ccsd
  thresh 1e-8
  maxiter 300
end

# set tce:print_integrals T
# set tce:qorb 6
# set tce:qela 3
# set tce:qelb 3

set tce:qducc T
set tce:nactv 3
set tce:nonhf T
set tce:ducc_model 6

set tce:printtol 0.02

task tce
================================================================================


                                         
                                         
 
 
             Northwest Computational Chemistry Package (NWChem) 7.2.3
             --------------------------------------------------------
 
 
                    Environmental Molecular Sciences Laboratory
                       Pacific Northwest National Laboratory
                                Richland, WA 99352
 
                              Copyright (c) 1994-2022
                       Pacific Northwest National Laboratory
                            Battelle Memorial Institute
 
             NWChem is an open-source computational chemistry package
                        distributed under the terms of the
                      Educational Community License (ECL) 2.0
             A copy of the license is included with this distribution
                              in the LICENSE.TXT file
 
                                  ACKNOWLEDGMENT
                                  --------------

            This software and its documentation were developed at the
            EMSL at Pacific Northwest National Laboratory, a multiprogram
            national laboratory, operated for the U.S. Department of Energy
            by Battelle under Contract Number DE-AC05-76RL01830. Support
            for this work was provided by the Department of Energy Office
            of Biological and Environmental Research, Office of Basic
            Energy Sciences, and the Office of Advanced Scientific Computing.


           Job information
           ---------------

    hostname        = koothan
    program         = /hpc/home/baum612/code/nwchem/bin/LINUX64/nwchem
    date            = Fri Nov 15 16:49:24 2024

    compiled        = Wed_Nov_13_16:23:19_2024
    source          = /hpc/home/baum612/code/nwchem
    nwchem branch   = 7.2.3
    nwchem revision = v7.2.0-beta1-1280-g0779ca2e41
    ga revision     = 5.8.0
    use scalapack   = T
    input           = input.nw
    prefix          = H6.
    data base       = ./H6.db
    status          = startup
    nproc           =        1
    time left       =     -1s



           Memory information
           ------------------

    heap     =   2684354560 doubles =    20480.0 Mbytes
    stack    =   2684354557 doubles =    20480.0 Mbytes
    global   =   5368709120 doubles =    40960.0 Mbytes (distinct from heap & stack)
    total    =  10737418237 doubles =    81920.0 Mbytes
    verify   = yes
    hardfail = no 


           Directory information
           ---------------------
 
  0 permanent = .
  0 scratch   = .
 
 
 
 
                                NWChem Input Module
                                -------------------
 
 
                                        H6
                                        --
 Turning off AUTOSYM since
 SYMMETRY directive was detected!
 

          ------
          auto-z
          ------
     1 autoz failed with cvr_scaling = 1.2 changing to 1.3
     2 autoz failed with cvr_scaling = 1.3 changing to 1.4
     3 autoz failed with cvr_scaling = 1.4 changing to 1.5
     4 autoz failed with cvr_scaling = 1.5 changing to 1.6
  Looking for out-of-plane bends
  autoz: insufficient variables                      5                    12
     5 autoz failed with cvr_scaling = 1.6 changing to 1.7
  Looking for out-of-plane bends
  autoz: insufficient variables                      5                    12

 AUTOZ failed to generate good internal coordinates.
 Cartesian coordinates will be used in optimizations.

 
 
                             Geometry "geometry" -> ""
                             -------------------------
 
 Output coordinates in a.u. (scale by  1.000000000 to convert to a.u.)
 
  No.       Tag          Charge          X              Y              Z
 ---- ---------------- ---------- -------------- -------------- --------------
    1 H                    1.0000     0.00000000     0.00000000    -5.67500000
    2 H                    1.0000     0.00000000     0.00000000    -3.40500000
    3 H                    1.0000     0.00000000     0.00000000    -1.13500000
    4 H                    1.0000     0.00000000     0.00000000     1.13500000
    5 H                    1.0000     0.00000000     0.00000000     3.40500000
    6 H                    1.0000     0.00000000     0.00000000     5.67500000
 
      Atomic Mass 
      ----------- 
 
      H                  1.007825
 

 Effective nuclear repulsion energy (a.u.)       3.8325991189

            Nuclear Dipole moment (a.u.) 
            ----------------------------
        X                 Y               Z
 ---------------- ---------------- ----------------
     0.0000000000     0.0000000000    -0.0000000000
 
 
            XYZ format geometry
            -------------------
     6
 geometry
 H                     0.00000000     0.00000000    -3.00308089
 H                     0.00000000     0.00000000    -1.80184853
 H                     0.00000000     0.00000000    -0.60061618
 H                     0.00000000     0.00000000     0.60061618
 H                     0.00000000     0.00000000     1.80184853
 H                     0.00000000     0.00000000     3.00308089
 


 Summary of "ao basis" -> "" (spherical)
 ------------------------------------------------------------------------------
       Tag                 Description            Shells   Functions and Types
 ---------------- ------------------------------  ------  ---------------------
 *                          cc-pVTZ                   on all atoms 


                      Basis "ao basis" -> "ao basis" (spherical)
                      -----
  H (Hydrogen)
  ------------
            Exponent  Coefficients 
       -------------- ---------------------------------------------------------
  1 S  3.38700000E+01  0.006068
  1 S  5.09500000E+00  0.045308
  1 S  1.15900000E+00  0.202822
 
  2 S  3.25800000E-01  1.000000
 
  3 S  1.02700000E-01  1.000000
 
  4 P  1.40700000E+00  1.000000
 
  5 P  3.88000000E-01  1.000000
 
  6 D  1.05700000E+00  1.000000
 


 Summary of "ao basis" -> "ao basis" (spherical)
 ------------------------------------------------------------------------------
       Tag                 Description            Shells   Functions and Types
 ---------------- ------------------------------  ------  ---------------------
 H                          cc-pVTZ                  6       14   3s2p1d


                                 NWChem SCF Module
                                 -----------------
 
 
                                        H6
 
 

  ao basis        = "ao basis"
  functions       =    84
  atoms           =     6
  closed shells   =     3
  open shells     =     0
  charge          =   0.00
  wavefunction    = RHF 
  input vectors   = atomic
  output vectors  = ./H6.movecs
  use symmetry    = F
  symmetry adapt  = F


 Summary of "ao basis" -> "ao basis" (spherical)
 ------------------------------------------------------------------------------
       Tag                 Description            Shells   Functions and Types
 ---------------- ------------------------------  ------  ---------------------
 H                          cc-pVTZ                  6       14   3s2p1d



 Forming initial guess at       0.4s

 
      Superposition of Atomic Density Guess
      -------------------------------------
 
 Sum of atomic energies:          -2.99885518
 
      Non-variational initial energy
      ------------------------------

 Total energy =      -2.504346
 1-e energy   =     -10.510102
 2-e energy   =       4.173156
 HOMO         =      -0.283434
 LUMO         =      -0.078609
 

 Starting SCF solution at       0.5s



 ----------------------------------------------
         Quadratically convergent ROHF

 Convergence threshold     :          1.000E-08
 Maximum no. of iterations :           30
 Final Fock-matrix accuracy:          1.000E-10
 ----------------------------------------------


              iter       energy          gnorm     gmax       time
             ----- ------------------- --------- --------- --------
                 1       -3.1556924133  2.02D-01  1.15D-01      0.7
                 2       -3.1652905249  6.13D-02  3.13D-02      1.0
                 3       -3.1658483202  3.14D-03  1.53D-03      1.3
                 4       -3.1658503429  1.75D-06  1.01D-06      1.8
                 5       -3.1658503429  1.26D-10  6.48D-11      2.4


       Final RHF  results 
       ------------------ 

         Total SCF energy =     -3.165850342931
      One-electron energy =    -10.946297599726
      Two-electron energy =      3.947848137852
 Nuclear repulsion energy =      3.832599118943

        Time for solution =      1.9s


             Final eigenvalues
             -----------------

              1      
    1   -0.6148
    2   -0.5241
    3   -0.3864
    4   -0.0047
    5    0.1594
    6    0.2882
    7    0.3364
    8    0.4131
    9    0.4362
   10    0.5600
   11    0.5702
   12    0.5702
   13    0.5927
 
                       ROHF Final Molecular Orbital Analysis
                       -------------------------------------
 
 Vector    1  Occ=2.000000D+00  E=-6.147819D-01
              MO Center= -4.9D-17,  7.4D-17, -3.8D-12, r^2= 2.9D+00
   Bfn.  Coefficient  Atom+Function         Bfn.  Coefficient  Atom+Function  
  ----- ------------  ---------------      ----- ------------  ---------------
    30      0.208947  3 H  s                 44      0.208947  4 H  s          
    16      0.155970  2 H  s                 58      0.155970  5 H  s          
 
 Vector    2  Occ=2.000000D+00  E=-5.241487D-01
              MO Center= -1.0D-16, -8.7D-17,  2.9D-12, r^2= 6.0D+00
   Bfn.  Coefficient  Atom+Function         Bfn.  Coefficient  Atom+Function  
  ----- ------------  ---------------      ----- ------------  ---------------
    16      0.208415  2 H  s                 58     -0.208415  5 H  s          
    17      0.179709  2 H  s                 59     -0.179709  5 H  s          
     2      0.177472  1 H  s                 72     -0.177472  6 H  s          
 
 Vector    3  Occ=2.000000D+00  E=-3.863701D-01
              MO Center=  1.6D-16, -1.3D-16, -3.5D-13, r^2= 5.8D+00
   Bfn.  Coefficient  Atom+Function         Bfn.  Coefficient  Atom+Function  
  ----- ------------  ---------------      ----- ------------  ---------------
    31     -0.214855  3 H  s                 45     -0.214855  4 H  s          
     2      0.195412  1 H  s                 30     -0.195091  3 H  s          
    44     -0.195091  4 H  s                 72      0.195412  6 H  s          
     3      0.178921  1 H  s                 73      0.178921  6 H  s          
    17      0.167984  2 H  s                 59      0.167984  5 H  s          
 
 Vector    4  Occ=0.000000D+00  E=-4.654019D-03
              MO Center=  3.2D-18,  6.0D-18, -4.5D-11, r^2= 7.4D+00
   Bfn.  Coefficient  Atom+Function         Bfn.  Coefficient  Atom+Function  
  ----- ------------  ---------------      ----- ------------  ---------------
     3      0.600715  1 H  s                 73     -0.600715  6 H  s          
    17     -0.419105  2 H  s                 59      0.419105  5 H  s          
    31     -0.196131  3 H  s                 45      0.196131  4 H  s          
    30     -0.191433  3 H  s                 44      0.191433  4 H  s          
     2      0.150419  1 H  s                 72     -0.150419  6 H  s          
 
 Vector    5  Occ=0.000000D+00  E= 1.593659D-01
              MO Center= -3.0D-16,  2.7D-16, -3.7D-11, r^2= 1.1D+01
   Bfn.  Coefficient  Atom+Function         Bfn.  Coefficient  Atom+Function  
  ----- ------------  ---------------      ----- ------------  ---------------
    17      1.326070  2 H  s                 59      1.326070  5 H  s          
     3     -1.181708  1 H  s                 73     -1.181708  6 H  s          
    31     -0.567779  3 H  s                 45     -0.567779  4 H  s          
    16      0.198078  2 H  s                 58      0.198078  5 H  s          
 
 Vector    6  Occ=0.000000D+00  E= 2.882229D-01
              MO Center= -4.5D-17, -7.6D-18, -1.8D-10, r^2= 1.3D+01
   Bfn.  Coefficient  Atom+Function         Bfn.  Coefficient  Atom+Function  
  ----- ------------  ---------------      ----- ------------  ---------------
    31      3.552403  3 H  s                 45     -3.552403  4 H  s          
    17     -2.687240  2 H  s                 59      2.687240  5 H  s          
     3      1.809858  1 H  s                 73     -1.809858  6 H  s          
     2     -0.478004  1 H  s                 72      0.478004  6 H  s          
 
 Vector    7  Occ=0.000000D+00  E= 3.363735D-01
              MO Center= -9.9D-16, -3.2D-16, -3.7D-11, r^2= 5.3D+00
   Bfn.  Coefficient  Atom+Function         Bfn.  Coefficient  Atom+Function  
  ----- ------------  ---------------      ----- ------------  ---------------
    30      0.662666  3 H  s                 44      0.662666  4 H  s          
    17     -0.560111  2 H  s                 59     -0.560111  5 H  s          
    31     -0.505686  3 H  s                 45     -0.505686  4 H  s          
    16      0.451387  2 H  s                 58      0.451387  5 H  s          
     2      0.355003  1 H  s                 72      0.355003  6 H  s          
 
 Vector    8  Occ=0.000000D+00  E= 4.131006D-01
              MO Center= -9.4D-16, -2.3D-16,  1.8D-10, r^2= 6.9D+00
   Bfn.  Coefficient  Atom+Function         Bfn.  Coefficient  Atom+Function  
  ----- ------------  ---------------      ----- ------------  ---------------
    17      2.540184  2 H  s                 59     -2.540184  5 H  s          
    31     -1.703825  3 H  s                 45      1.703825  4 H  s          
    16     -0.730523  2 H  s                 58      0.730523  5 H  s          
     3     -0.550246  1 H  s                 73      0.550246  6 H  s          
     2     -0.418420  1 H  s                 72      0.418420  6 H  s          
 
 Vector    9  Occ=0.000000D+00  E= 4.362359D-01
              MO Center=  1.5D-16,  7.7D-17, -1.3D-10, r^2= 1.0D+01
   Bfn.  Coefficient  Atom+Function         Bfn.  Coefficient  Atom+Function  
  ----- ------------  ---------------      ----- ------------  ---------------
     3      1.127309  1 H  s                 73      1.127309  6 H  s          
     2     -0.876332  1 H  s                 72     -0.876332  6 H  s          
    31     -0.478470  3 H  s                 45     -0.478470  4 H  s          
    30      0.371066  3 H  s                 44      0.371066  4 H  s          
    17     -0.290674  2 H  s                 59     -0.290674  5 H  s          
 
 Vector   10  Occ=0.000000D+00  E= 5.599755D-01
              MO Center= -3.9D-16, -2.0D-17, -4.1D-10, r^2= 7.8D+00
   Bfn.  Coefficient  Atom+Function         Bfn.  Coefficient  Atom+Function  
  ----- ------------  ---------------      ----- ------------  ---------------
    31     -1.009176  3 H  s                 45      1.009176  4 H  s          
     3      0.993288  1 H  s                 73     -0.993288  6 H  s          
    16      0.740443  2 H  s                 58     -0.740443  5 H  s          
     2     -0.707363  1 H  s                 72      0.707363  6 H  s          
    17     -0.609772  2 H  s                 59      0.609772  5 H  s          
 
 Vector   11  Occ=0.000000D+00  E= 5.702460D-01
              MO Center=  5.7D-16,  2.1D-16, -1.2D-11, r^2= 3.1D+00
   Bfn.  Coefficient  Atom+Function         Bfn.  Coefficient  Atom+Function  
  ----- ------------  ---------------      ----- ------------  ---------------
    35      0.402442  3 H  px                49      0.402442  4 H  px         
    21      0.316978  2 H  px                63      0.316978  5 H  px         
     7      0.177231  1 H  px                77      0.177231  6 H  px         
 
 Vector   12  Occ=0.000000D+00  E= 5.702460D-01
              MO Center=  8.5D-17, -1.5D-16, -1.2D-11, r^2= 3.1D+00
   Bfn.  Coefficient  Atom+Function         Bfn.  Coefficient  Atom+Function  
  ----- ------------  ---------------      ----- ------------  ---------------
    36      0.402442  3 H  py                50      0.402442  4 H  py         
    22      0.316978  2 H  py                64      0.316978  5 H  py         
     8      0.177231  1 H  py                78      0.177231  6 H  py         
 
 Vector   13  Occ=0.000000D+00  E= 5.927384D-01
              MO Center= -1.5D-16, -2.0D-16,  7.2D-10, r^2= 7.1D+00
   Bfn.  Coefficient  Atom+Function         Bfn.  Coefficient  Atom+Function  
  ----- ------------  ---------------      ----- ------------  ---------------
    17      3.136561  2 H  s                 59      3.136561  5 H  s          
    31     -1.850843  3 H  s                 45     -1.850843  4 H  s          
     3     -1.241639  1 H  s                 73     -1.241639  6 H  s          
    16     -0.979105  2 H  s                 58     -0.979105  5 H  s          
    30      0.645743  3 H  s                 44      0.645743  4 H  s          
 

 center of mass
 --------------
 x =   0.00000000 y =   0.00000000 z =  -0.00000000

 moments of inertia (a.u.)
 ------------------
          90.881375243750           0.000000000000           0.000000000000
           0.000000000000          90.881375243750           0.000000000000
           0.000000000000           0.000000000000           0.000000000000
 
  Mulliken analysis of the total density
  --------------------------------------

    Atom       Charge   Shell Charges
 -----------   ------   -------------------------------------------------------
    1 H    1     0.96   0.16  0.46  0.32  0.00  0.01  0.00
    2 H    1     1.06   0.17  0.49  0.37  0.00  0.02  0.00
    3 H    1     0.98   0.17  0.50  0.28  0.00  0.02  0.00
    4 H    1     0.98   0.17  0.50  0.28  0.00  0.02  0.00
    5 H    1     1.06   0.17  0.49  0.37  0.00  0.02  0.00
    6 H    1     0.96   0.16  0.46  0.32  0.00  0.01  0.00
 
       Multipole analysis of the density wrt the origin
       ------------------------------------------------
 
     L   x y z        total         open         nuclear
     -   - - -        -----         ----         -------
     0   0 0 0     -0.000000      0.000000      6.000000
 
     1   1 0 0     -0.000000      0.000000      0.000000
     1   0 1 0      0.000000      0.000000      0.000000
     1   0 0 1      0.000000      0.000000     -0.000000
 
     2   2 0 0     -5.799538      0.000000      0.000000
     2   1 1 0     -0.000000      0.000000      0.000000
     2   1 0 1     -0.000000      0.000000      0.000000
     2   0 2 0     -5.799538      0.000000      0.000000
     2   0 1 1      0.000000      0.000000      0.000000
     2   0 0 2     -3.502263      0.000000     90.175750
 
                   NWChem Extensible Many-Electron Theory Module
                   ---------------------------------------------
 
              ======================================================
                   This portion of the program was automatically
                  generated by a Tensor Contraction Engine (TCE).
                  The development of this portion of the program
                 and TCE was supported by US Department of Energy,
                Office of Science, Office of Basic Energy Science.
                      TCE is a product of Battelle and PNNL.
              Please cite: S.Hirata, J.Phys.Chem.A 107, 9887 (2003).
              ======================================================
 
                                        H6
 
 
            General Information
            -------------------
      Number of processors :     1
         Wavefunction type : Restricted Hartree-Fock
          No. of electrons :     6
           Alpha electrons :     3
            Beta electrons :     3
           No. of orbitals :   168
            Alpha orbitals :    84
             Beta orbitals :    84
        Alpha frozen cores :     0
         Beta frozen cores :     0
     Alpha frozen virtuals :     0
      Beta frozen virtuals :     0
         Spin multiplicity : singlet 
    Number of AO functions :    84
       Number of AO shells :    36
        Use of symmetry is : off
      Symmetry adaption is : off
         Schwarz screening : 0.10D-09
 
          Correlation Information
          -----------------------
          Calculation type : Coupled-cluster singles & doubles                           
   Perturbative correction : none                                                        
            Max iterations :      300
        Residual threshold : 0.10D-07
     T(0) DIIS level shift : 0.00D+00
     L(0) DIIS level shift : 0.00D+00
     T(1) DIIS level shift : 0.00D+00
     L(1) DIIS level shift : 0.00D+00
     T(R) DIIS level shift : 0.00D+00
     T(I) DIIS level shift : 0.00D+00
   CC-T/L Amplitude update :  5-th order DIIS
                I/O scheme : Global Array Library
        L-threshold :  0.10D-07
        EOM-threshold :  0.10D-07
 no EOMCCSD initial starts read in
 TCE RESTART OPTIONS
 READ_INT:   F
 WRITE_INT:  F
 READ_TA:    F
 WRITE_TA:   F
 READ_XA:    F
 WRITE_XA:   F
 READ_IN3:   F
 WRITE_IN3:  F
 SLICE:      F
 D4D5:       F
 quantumc:   F
 qrotation:  F
 pwtce:      F
 qducc:      T
 nacto:                          0
 nrotv:                          0
 nrot:                           0
 
            Memory Information
            ------------------
          Available GA space size is    5368702064 doubles
          Available MA space size is    5368706460 doubles
 
 Maximum block size        32 doubles

 tile_dim =     27

 Block   Spin    Irrep     Size     Offset   Alpha
 -------------------------------------------------
   1    alpha     a      3 doubles       0       1
   2    beta      a      3 doubles       3       1
   3    alpha     a     27 doubles       6       3
   4    alpha     a     27 doubles      33       4
   5    alpha     a     27 doubles      60       5
   6    beta      a     27 doubles      87       3
   7    beta      a     27 doubles     114       4
   8    beta      a     27 doubles     141       5

 Global array virtual files algorithm will be used

 Parallel file system coherency ......... OK
 
 Fock matrix recomputed
 1-e file size   =             7056
 1-e file name   = ./H6.f1
 Cpu & wall time / sec            0.1            0.1
 4-electron integrals stored in orbital form
 
 v2    file size   =         12304143
 4-index algorithm nr.  13 is used
 imaxsize =       30
 imaxsize ichop =        0
 Cpu & wall time / sec            4.5            4.5
 T1-number-of-tasks                     3
 
 t1 file size   =              243
 t1 file name   = ./H6.t1
 t1 file handle =       -998
 T2-number-of-boxes                    15
 
 t2 file size   =            98415
 t2 file name   = ./H6.t2
 t2 file handle =       -996
CCSD iterations
 ---------------------------------------------------------
 Iter          Residuum       Correlation     Cpu    Wall 
 ---------------------------------------------------------
NEW TASK SCHEDULING
CCSD_T1_NTS --- OK
CCSD_T2_NTS --- OK
    1   0.1351128151675  -0.1209457585065     0.6     0.6
    2   0.0553338768774  -0.1426936869456     0.5     0.5
    3   0.0281946280074  -0.1508438630430     0.5     0.5
    4   0.0160225506483  -0.1544160435905     0.5     0.5
    5   0.0097810282050  -0.1562516573165     0.5     0.5
 MICROCYCLE DIIS UPDATE:                     5                     5
    6   0.0032592248322  -0.1585956652530     0.5     0.5
    7   0.0020567259552  -0.1585884871345     0.5     0.5
    8   0.0013264277973  -0.1586035703906     0.5     0.5
    9   0.0009559130855  -0.1586167815533     0.5     0.5
   10   0.0006659209847  -0.1586360393655     0.5     0.5
 MICROCYCLE DIIS UPDATE:                    10                     5
   11   0.0001265862227  -0.1586848978120     0.5     0.5
   12   0.0000543837093  -0.1586972232232     0.5     0.5
   13   0.0000301340112  -0.1587039436541     0.5     0.5
   14   0.0000174875423  -0.1587069368199     0.5     0.5
   15   0.0000107734950  -0.1587086570467     0.5     0.5
 MICROCYCLE DIIS UPDATE:                    15                     5
   16   0.0000035435414  -0.1587109027060     0.5     0.5
   17   0.0000023477045  -0.1587109363314     0.5     0.5
   18   0.0000015168790  -0.1587109557462     0.5     0.5
   19   0.0000011007399  -0.1587109686273     0.5     0.5
   20   0.0000007654057  -0.1587109900102     0.5     0.5
 MICROCYCLE DIIS UPDATE:                    20                     5
   21   0.0000001436935  -0.1587110417523     0.5     0.5
   22   0.0000000621436  -0.1587110585961     0.5     0.5
   23   0.0000000331133  -0.1587110659092     0.5     0.5
   24   0.0000000188573  -0.1587110693964     0.5     0.5
   25   0.0000000112260  -0.1587110713114     0.5     0.5
 MICROCYCLE DIIS UPDATE:                    25                     5
   26   0.0000000032327  -0.1587110737953     0.5     0.5
 -----------------------------------------------------------------
 Iterations converged
 CCSD correlation energy / hartree =        -0.158711073795332
 CCSD total energy / hartree       =        -3.324561416726181

 Singles contributions
     4a   (alpha) ---     2a   (alpha)       -0.0214869362
     9a   (alpha) ---     3a   (alpha)       -0.0239327095

 Doubles contributions
     4a   (alpha)     5a   (alpha) ---     2a   (alpha)     3a   (alpha)        0.0378809914
     4a   (alpha)     5a   (alpha) ---     3a   (alpha)     2a   (alpha)       -0.0378809914
     5a   (alpha)     4a   (alpha) ---     2a   (alpha)     3a   (alpha)       -0.0378809914
     5a   (alpha)     4a   (alpha) ---     3a   (alpha)     2a   (alpha)        0.0378809914
     4a   (alpha)     4a   (beta ) ---     1a   (alpha)     1a   (beta )       -0.0473068640
     4a   (alpha)     4a   (beta ) ---     2a   (alpha)     2a   (beta )       -0.0706063385
     4a   (alpha)     4a   (beta ) ---     3a   (alpha)     3a   (beta )       -0.1923674878
     4a   (alpha)     5a   (beta ) ---     1a   (alpha)     2a   (beta )        0.0313447226
     4a   (alpha)     5a   (beta ) ---     2a   (alpha)     3a   (beta )        0.0748891656
     4a   (alpha)     5a   (beta ) ---     3a   (alpha)     2a   (beta )        0.0370081742
     4a   (alpha)     6a   (beta ) ---     1a   (alpha)     3a   (beta )       -0.0323761059
     4a   (alpha)     6a   (beta ) ---     3a   (alpha)     3a   (beta )        0.0475627295
     4a   (alpha)     7a   (beta ) ---     2a   (alpha)     3a   (beta )       -0.0240137398
     4a   (alpha)     7a   (beta ) ---     3a   (alpha)     2a   (beta )       -0.0201645059
     4a   (alpha)     8a   (beta ) ---     1a   (alpha)     3a   (beta )        0.0266349858
     4a   (alpha)     8a   (beta ) ---     3a   (alpha)     1a   (beta )        0.0214272935
     4a   (alpha)     9a   (beta ) ---     1a   (alpha)     2a   (beta )        0.0248110989
     4a   (alpha)     9a   (beta ) ---     2a   (alpha)     1a   (beta )        0.0214184867
     4a   (alpha)     9a   (beta ) ---     2a   (alpha)     3a   (beta )        0.0403521005
     4a   (alpha)     9a   (beta ) ---     3a   (alpha)     2a   (beta )        0.0315689234
     4a   (alpha)    10a   (beta ) ---     1a   (alpha)     3a   (beta )        0.0458763735
     4a   (alpha)    10a   (beta ) ---     2a   (alpha)     2a   (beta )        0.0314289094
     4a   (alpha)    10a   (beta ) ---     3a   (alpha)     1a   (beta )        0.0269394124
     4a   (alpha)    10a   (beta ) ---     3a   (alpha)     3a   (beta )        0.0223340666
     4a   (alpha)    13a   (beta ) ---     2a   (alpha)     3a   (beta )       -0.0247881140
     4a   (alpha)    18a   (beta ) ---     1a   (alpha)     3a   (beta )        0.0284011242
     5a   (alpha)     4a   (beta ) ---     2a   (alpha)     1a   (beta )        0.0313447226
     5a   (alpha)     4a   (beta ) ---     2a   (alpha)     3a   (beta )        0.0370081742
     5a   (alpha)     4a   (beta ) ---     3a   (alpha)     2a   (beta )        0.0748891656
     5a   (alpha)     5a   (beta ) ---     1a   (alpha)     1a   (beta )       -0.0265932941
     5a   (alpha)     5a   (beta ) ---     2a   (alpha)     2a   (beta )       -0.0527796178
     5a   (alpha)     5a   (beta ) ---     3a   (alpha)     3a   (beta )       -0.0441509603
     5a   (alpha)     9a   (beta ) ---     2a   (alpha)     2a   (beta )       -0.0258303252
     5a   (alpha)    10a   (beta ) ---     1a   (alpha)     2a   (beta )       -0.0273344419
     5a   (alpha)    10a   (beta ) ---     2a   (alpha)     1a   (beta )       -0.0226086305
     5a   (alpha)    10a   (beta ) ---     2a   (alpha)     3a   (beta )       -0.0244678996
     5a   (alpha)    10a   (beta ) ---     3a   (alpha)     2a   (beta )       -0.0211572002
     5a   (alpha)    13a   (beta ) ---     2a   (alpha)     2a   (beta )        0.0207240321
     6a   (alpha)     4a   (beta ) ---     3a   (alpha)     1a   (beta )       -0.0323761059
     6a   (alpha)     4a   (beta ) ---     3a   (alpha)     3a   (beta )        0.0475627295
     6a   (alpha)     6a   (beta ) ---     3a   (alpha)     3a   (beta )       -0.0272409220
     7a   (alpha)     4a   (beta ) ---     2a   (alpha)     3a   (beta )       -0.0201645059
     7a   (alpha)     4a   (beta ) ---     3a   (alpha)     2a   (beta )       -0.0240137398
     8a   (alpha)     4a   (beta ) ---     1a   (alpha)     3a   (beta )        0.0214272935
     8a   (alpha)     4a   (beta ) ---     3a   (alpha)     1a   (beta )        0.0266349858
     9a   (alpha)     4a   (beta ) ---     1a   (alpha)     2a   (beta )        0.0214184867
     9a   (alpha)     4a   (beta ) ---     2a   (alpha)     1a   (beta )        0.0248110989
     9a   (alpha)     4a   (beta ) ---     2a   (alpha)     3a   (beta )        0.0315689234
     9a   (alpha)     4a   (beta ) ---     3a   (alpha)     2a   (beta )        0.0403521005
     9a   (alpha)     5a   (beta ) ---     2a   (alpha)     2a   (beta )       -0.0258303252
     9a   (alpha)     9a   (beta ) ---     2a   (alpha)     2a   (beta )       -0.0221339744
    10a   (alpha)     4a   (beta ) ---     1a   (alpha)     3a   (beta )        0.0269394124
    10a   (alpha)     4a   (beta ) ---     2a   (alpha)     2a   (beta )        0.0314289094
    10a   (alpha)     4a   (beta ) ---     3a   (alpha)     1a   (beta )        0.0458763735
    10a   (alpha)     4a   (beta ) ---     3a   (alpha)     3a   (beta )        0.0223340666
    10a   (alpha)     5a   (beta ) ---     1a   (alpha)     2a   (beta )       -0.0226086305
    10a   (alpha)     5a   (beta ) ---     2a   (alpha)     1a   (beta )       -0.0273344419
    10a   (alpha)     5a   (beta ) ---     2a   (alpha)     3a   (beta )       -0.0211572002
    10a   (alpha)     5a   (beta ) ---     3a   (alpha)     2a   (beta )       -0.0244678996
    10a   (alpha)    10a   (beta ) ---     2a   (alpha)     2a   (beta )       -0.0241409256
    11a   (alpha)    11a   (beta ) ---     1a   (alpha)     1a   (beta )       -0.0216488421
    12a   (alpha)    12a   (beta ) ---     1a   (alpha)     1a   (beta )       -0.0216488421
    13a   (alpha)     4a   (beta ) ---     3a   (alpha)     2a   (beta )       -0.0247881140
    13a   (alpha)     5a   (beta ) ---     2a   (alpha)     2a   (beta )        0.0207240321
    18a   (alpha)     4a   (beta ) ---     3a   (alpha)     1a   (beta )        0.0284011242
 Ground state specification:
 exp(T)|Ref>~(1+T)|Ref>
 ------- a(p)+/a(q) strings ----------

 singles norm

 doubles norm

 Reference string
  0.981995555961104      :(1a)+ (2a)+ (3a)+ (1b)+ (2b)+ (3b)+ |0>

 Singles strings

 Doubles strings
 -0.188904018148482      :(4a)+ (4b)+ (3b)  (3a)  (1a)+ (2a)+ (3a)+ (1b)+ (2b)+ 
 (3b)+ |0>
 -------------------------------------
 enrep_tce =    3.83259911894273     
  EHF(total)         =        -3.16585034
  Shift (HFtot-HFA)  =         0.00000000
 ALL OCCUPIED ORBITALS ARE ACTIVE IN DUCC --> NO SHIFT
 Number of active orbitals                     6
 Number of active alpha electrons                     3
 Number of active beta electrons                     3
  nos                      6
  nvs                    162
 noas                      3
 nobs                      3
 nvas                     81
 nvbs                     81
 nactv                      3
 DUCC MODEL =                      6
 NONHF =  T
 F-T1 correlation    =   1.759852299912088E-011
 V-T1-T1 correlation =   8.540059995982022E-005
 V-T2 correlation    =  -0.158796474395647     
 Total correlation   =  -0.158711073778088     
 F-T1(Ext) correlation         =   7.820673843904537E-012
 V-T1(Ext)-T1(Ext) correlation =   9.360608269401503E-005
 V-T2(Ext) correlation         =  -0.112626264260441     
 Total Ext correlation         =  -0.112532658169926     
1-BODY TIME =  679.273 SECONDS.
  HHHH TIME =  905.381 SECONDS.
  PPPP TIME =   15.507 SECONDS.
  HHHP TIME =   49.835 SECONDS.
  PPPH TIME =   29.188 SECONDS.
  HPHP TIME =   50.308 SECONDS.
  HHPP TIME =   21.180 SECONDS.
 ONE-BODY UNITARY CHECK
 TWO-BODY UNITARY CHECK
 TWO-BODY ANTISYMMETRY CHECK
 TRANSFORMED ~FOCK~ MATRIX
    1    1        -0.6456751052
    1    3         0.0007464478
    1    5        -0.0021228643
    2    2        -0.5560880597
    2    4         0.0015122096
    2    6         0.0076644717
    3    1         0.0007464478
    3    3        -0.4198540243
    3    5        -0.0063631559
    4    2         0.0015122096
    4    4         0.0101790905
    4    6        -0.0035485663
    5    1        -0.0021228643
    5    3        -0.0063631559
    5    5         0.1701368712
    6    2         0.0076644717
    6    4        -0.0035485663
    6    6         0.2945506730
 begin_one_electron_integrals
    1    1        -1.9955816427
    1    3         0.1242647988
    1    5        -0.0642764360
    2    2        -1.7953000749
    2    4         0.1788576684
    2    6         0.0624907228
    3    1         0.1242647988
    3    3        -1.6976073085
    3    5        -0.1670957605
    4    2         0.1788576684
    4    4        -1.4935326724
    4    6         0.2546312206
    5    1        -0.0642764360
    5    3        -0.1670957605
    5    5        -1.1842894574
    6    2         0.0624907228
    6    4         0.2546312206
    6    6        -0.9436383006
 end_one_electron_integrals
 begin_two_electron_integrals
    1    1    1    1        0.3620041586
    1    1    1    3       -0.0639632741
    1    1    1    5        0.0065294992
    1    2    1    2        0.1095475596
    1    2    1    4       -0.0381511615
    1    2    1    6       -0.0021254564
    1    3    1    1       -0.0639632741
    1    3    1    3        0.0812075222
    1    3    1    5        0.0232277349
    1    4    1    2       -0.0381511615
    1    4    1    4        0.0624062579
    1    4    1    6       -0.0261966879
    1    5    1    1        0.0065294992
    1    5    1    3        0.0232277349
    1    5    1    5        0.0357743220
    1    6    1    2       -0.0021254564
    1    6    1    4       -0.0261966879
    1    6    1    6        0.0267173158
    1    1    2    2        0.2879853790
    1    1    2    4       -0.0608449213
    1    1    2    6       -0.0061531422
    1    2    2    1        0.1096329416
    1    2    2    3        0.0823036389
    1    2    2    5        0.0326876974
    1    3    2    2        0.0215081828
    1    3    2    4        0.0413397976
    1    3    2    6       -0.0280612068
    1    4    2    1       -0.0381831570
    1    4    2    3        0.0054021720
    1    4    2    5       -0.0337141893
    1    5    2    2        0.0287901907
    1    5    2    4       -0.0180037272
    1    5    2    6       -0.0160188281
    1    6    2    1       -0.0016283239
    1    6    2    3       -0.0201338458
    1    6    2    5       -0.0055272878
    1    1    3    1       -0.0639632741
    1    1    3    3        0.3013544142
    1    1    3    5        0.0613604091
    1    2    3    2        0.0839674580
    1    2    3    4        0.0570806137
    1    2    3    6       -0.0439417826
    1    3    3    1        0.0811442659
    1    3    3    3       -0.0202678036
    1    3    3    5       -0.0338682241
    1    4    3    2        0.0038315236
    1    4    3    4       -0.0069792692
    1    4    3    6        0.0230487483
    1    5    3    1        0.0229061241
    1    5    3    3       -0.0015684177
    1    5    3    5        0.0072963655
    1    6    3    2       -0.0193883190
    1    6    3    4        0.0061247580
    1    6    3    6       -0.0005273519
    1    1    4    2       -0.0608449213
    1    1    4    4        0.2924289573
    1    1    4    6       -0.0732011393
    1    2    4    1       -0.0381831570
    1    2    4    3        0.0596722889
    1    2    4    5       -0.0718472031
    1    3    4    2        0.0418609639
    1    3    4    4       -0.0167188074
    1    3    4    6        0.0340429133
    1    4    4    1        0.0577512457
    1    4    4    3       -0.0081709470
    1    4    4    5        0.0031472632
    1    5    4    2       -0.0161145844
    1    5    4    4        0.0039297537
    1    5    4    6        0.0037268483
    1    6    4    1       -0.0226227460
    1    6    4    3        0.0065002473
    1    6    4    5        0.0083989086
    1    1    5    1        0.0065294992
    1    1    5    3        0.0613604091
    1    1    5    5        0.2432399982
    1    2    5    2        0.0323309426
    1    2    5    4       -0.0714417860
    1    2    5    6       -0.0469522450
    1    3    5    1        0.0229061241
    1    3    5    3       -0.0362775388
    1    3    5    5        0.0071650889
    1    4    5    2       -0.0308659979
    1    4    5    4        0.0032771043
    1    4    5    6        0.0078558027
    1    5    5    1        0.0300808287
    1    5    5    3        0.0075585083
    1    5    5    5        0.0121504805
    1    6    5    2       -0.0042754966
    1    6    5    4        0.0085392372
    1    6    5    6       -0.0010596726
    1    1    6    2       -0.0061531422
    1    1    6    4       -0.0732011393
    1    1    6    6        0.2201872419
    1    2    6    1       -0.0016283239
    1    2    6    3       -0.0456412613
    1    2    6    5       -0.0466845542
    1    3    6    2       -0.0289177526
    1    3    6    4        0.0337559290
    1    3    6    6       -0.0033576228
    1    4    6    1       -0.0226227460
    1    4    6    3        0.0225161425
    1    4    6    5        0.0078411068
    1    5    6    2       -0.0132956078
    1    5    6    4        0.0040168989
    1    5    6    6        0.0001662972
    1    6    6    1        0.0215607074
    1    6    6    3       -0.0016359568
    1    6    6    5       -0.0009209701
    2    1    1    2        0.1096329416
    2    1    1    4       -0.0381831570
    2    1    1    6       -0.0016283239
    2    2    1    1        0.2879853790
    2    2    1    3        0.0215081828
    2    2    1    5        0.0287901907
    2    3    1    2        0.0823036389
    2    3    1    4        0.0054021720
    2    3    1    6       -0.0201338458
    2    4    1    1       -0.0608449213
    2    4    1    3        0.0413397976
    2    4    1    5       -0.0180037272
    2    5    1    2        0.0326876974
    2    5    1    4       -0.0337141893
    2    5    1    6       -0.0055272878
    2    6    1    1       -0.0061531422
    2    6    1    3       -0.0280612068
    2    6    1    5       -0.0160188281
    2    1    2    1        0.1095475596
    2    1    2    3        0.0839674580
    2    1    2    5        0.0323309426
    2    2    2    2        0.3104958054
    2    2    2    4       -0.0135096327
    2    2    2    6       -0.0364403626
    2    3    2    1        0.0839674580
    2    3    2    3        0.0969278499
    2    3    2    5        0.0110897605
    2    4    2    2       -0.0135096327
    2    4    2    4        0.0649471709
    2    4    2    6       -0.0155160065
    2    5    2    1        0.0323309426
    2    5    2    3        0.0110897605
    2    5    2    5        0.0485643721
    2    6    2    2       -0.0364403626
    2    6    2    4       -0.0155160065
    2    6    2    6        0.0288633743
    2    1    3    2        0.0823036389
    2    1    3    4        0.0596722889
    2    1    3    6       -0.0456412613
    2    2    3    1        0.0215081828
    2    2    3    3        0.2798317476
    2    2    3    5        0.0217295151
    2    3    3    2        0.0972851018
    2    3    3    4        0.0556366228
    2    3    3    6       -0.0291742995
    2    4    3    1        0.0418609639
    2    4    3    3       -0.0123462588
    2    4    3    5       -0.0480352130
    2    5    3    2        0.0102266083
    2    5    3    4       -0.0165346471
    2    5    3    6       -0.0160689309
    2    6    3    1       -0.0289177526
    2    6    3    3       -0.0184411137
    2    6    3    5        0.0024092950
    2    1    4    1       -0.0381511615
    2    1    4    3        0.0570806137
    2    1    4    5       -0.0714417860
    2    2    4    2       -0.0135096327
    2    2    4    4        0.2742781381
    2    2    4    6       -0.0369118607
    2    3    4    1        0.0038315236
    2    3    4    3        0.0574016360
    2    3    4    5       -0.0752415830
    2    4    4    2        0.0599327028
    2    4    4    4       -0.0156561450
    2    4    4    6        0.0212743561
    2    5    4    1       -0.0308659979
    2    5    4    3       -0.0123809851
    2    5    4    5       -0.0059179675
    2    6    4    2       -0.0121033737
    2    6    4    4       -0.0133135094
    2    6    4    6        0.0002959240
    2    1    5    2        0.0326876974
    2    1    5    4       -0.0718472031
    2    1    5    6       -0.0466845542
    2    2    5    1        0.0287901907
    2    2    5    3        0.0217295151
    2    2    5    5        0.2500583527
    2    3    5    2        0.0102266083
    2    3    5    4       -0.0748714891
    2    3    5    6       -0.0458279341
    2    4    5    1       -0.0161145844
    2    4    5    3       -0.0417602080
    2    4    5    5       -0.0086065531
    2    5    5    2        0.0414184320
    2    5    5    4       -0.0069615542
    2    5    5    6       -0.0017731019
    2    6    5    1       -0.0132956078
    2    6    5    3        0.0008554214
    2    6    5    5       -0.0156133946
    2    1    6    1       -0.0021254564
    2    1    6    3       -0.0439417826
    2    1    6    5       -0.0469522450
    2    2    6    2       -0.0364403626
    2    2    6    4       -0.0369118607
    2    2    6    6        0.2169279713
    2    3    6    1       -0.0193883190
    2    3    6    3       -0.0315217403
    2    3    6    5       -0.0452396419
    2    4    6    2       -0.0121033737
    2    4    6    4        0.0205667448
    2    4    6    6       -0.0010925133
    2    5    6    1       -0.0042754966
    2    5    6    3       -0.0160081277
    2    5    6    5       -0.0027986332
    2    6    6    2        0.0231311908
    2    6    6    4        0.0002627473
    2    6    6    6       -0.0075468999
    3    1    1    1       -0.0639632741
    3    1    1    3        0.0811442659
    3    1    1    5        0.0229061241
    3    2    1    2        0.0839674580
    3    2    1    4        0.0038315236
    3    2    1    6       -0.0193883190
    3    3    1    1        0.3013544142
    3    3    1    3       -0.0202678036
    3    3    1    5       -0.0015684177
    3    4    1    2        0.0570806137
    3    4    1    4       -0.0069792692
    3    4    1    6        0.0061247580
    3    5    1    1        0.0613604091
    3    5    1    3       -0.0338682241
    3    5    1    5        0.0072963655
    3    6    1    2       -0.0439417826
    3    6    1    4        0.0230487483
    3    6    1    6       -0.0005273519
    3    1    2    2        0.0215081828
    3    1    2    4        0.0418609639
    3    1    2    6       -0.0289177526
    3    2    2    1        0.0823036389
    3    2    2    3        0.0972851018
    3    2    2    5        0.0102266083
    3    3    2    2        0.2798317476
    3    3    2    4       -0.0123462588
    3    3    2    6       -0.0184411137
    3    4    2    1        0.0596722889
    3    4    2    3        0.0556366228
    3    4    2    5       -0.0165346471
    3    5    2    2        0.0217295151
    3    5    2    4       -0.0480352130
    3    5    2    6        0.0024092950
    3    6    2    1       -0.0456412613
    3    6    2    3       -0.0291742995
    3    6    2    5       -0.0160689309
    3    1    3    1        0.0812075222
    3    1    3    3       -0.0202678036
    3    1    3    5       -0.0362775388
    3    2    3    2        0.0969278499
    3    2    3    4        0.0574016360
    3    2    3    6       -0.0315217403
    3    3    3    1       -0.0202678036
    3    3    3    3        0.2938103282
    3    3    3    5        0.0276854885
    3    4    3    2        0.0574016360
    3    4    3    4        0.0799846697
    3    4    3    6       -0.0361140230
    3    5    3    1       -0.0362775388
    3    5    3    3        0.0276854885
    3    5    3    5        0.0439137348
    3    6    3    2       -0.0315217403
    3    6    3    4       -0.0361140230
    3    6    3    6        0.0363949405
    3    1    4    2        0.0413397976
    3    1    4    4       -0.0167188074
    3    1    4    6        0.0337559290
    3    2    4    1        0.0054021720
    3    2    4    3        0.0556366228
    3    2    4    5       -0.0748714891
    3    3    4    2       -0.0123462588
    3    3    4    4        0.2776232054
    3    3    4    6       -0.0507587188
    3    4    4    1       -0.0081709470
    3    4    4    3        0.0672648902
    3    4    4    5       -0.0506605078
    3    5    4    2       -0.0417602080
    3    5    4    4        0.0178286168
    3    5    4    6       -0.0242259019
    3    6    4    1        0.0225161425
    3    6    4    3       -0.0288375310
    3    6    4    5        0.0181482864
    3    1    5    1        0.0232277349
    3    1    5    3       -0.0338682241
    3    1    5    5        0.0071650889
    3    2    5    2        0.0110897605
    3    2    5    4       -0.0752415830
    3    2    5    6       -0.0452396419
    3    3    5    1       -0.0015684177
    3    3    5    3        0.0276854885
    3    3    5    5        0.2404824697
    3    4    5    2       -0.0123809851
    3    4    5    4       -0.0477797209
    3    4    5    6       -0.0356328673
    3    5    5    1        0.0075585083
    3    5    5    3        0.0416360519
    3    5    5    5        0.0109371612
    3    6    5    2       -0.0160081277
    3    6    5    4        0.0176818994
    3    6    5    6        0.0090105641
    3    1    6    2       -0.0280612068
    3    1    6    4        0.0340429133
    3    1    6    6       -0.0033576228
    3    2    6    1       -0.0201338458
    3    2    6    3       -0.0291742995
    3    2    6    5       -0.0458279341
    3    3    6    2       -0.0184411137
    3    3    6    4       -0.0507587188
    3    3    6    6        0.2199640893
    3    4    6    1        0.0065002473
    3    4    6    3       -0.0288375310
    3    4    6    5       -0.0335317409
    3    5    6    2        0.0008554214
    3    5    6    4       -0.0223792187
    3    5    6    6        0.0048736315
    3    6    6    1       -0.0016359568
    3    6    6    3        0.0312777331
    3    6    6    5        0.0087796950
    4    1    1    2       -0.0381831570
    4    1    1    4        0.0577512457
    4    1    1    6       -0.0226227460
    4    2    1    1       -0.0608449213
    4    2    1    3        0.0418609639
    4    2    1    5       -0.0161145844
    4    3    1    2        0.0596722889
    4    3    1    4       -0.0081709470
    4    3    1    6        0.0065002473
    4    4    1    1        0.2924289573
    4    4    1    3       -0.0167188074
    4    4    1    5        0.0039297537
    4    5    1    2       -0.0718472031
    4    5    1    4        0.0031472632
    4    5    1    6        0.0083989086
    4    6    1    1       -0.0732011393
    4    6    1    3        0.0340429133
    4    6    1    5        0.0037268483
    4    1    2    1       -0.0381511615
    4    1    2    3        0.0038315236
    4    1    2    5       -0.0308659979
    4    2    2    2       -0.0135096327
    4    2    2    4        0.0599327028
    4    2    2    6       -0.0121033737
    4    3    2    1        0.0570806137
    4    3    2    3        0.0574016360
    4    3    2    5       -0.0123809851
    4    4    2    2        0.2742781381
    4    4    2    4       -0.0156561450
    4    4    2    6       -0.0133135094
    4    5    2    1       -0.0714417860
    4    5    2    3       -0.0752415830
    4    5    2    5       -0.0059179675
    4    6    2    2       -0.0369118607
    4    6    2    4        0.0212743561
    4    6    2    6        0.0002959240
    4    1    3    2        0.0054021720
    4    1    3    4       -0.0081709470
    4    1    3    6        0.0225161425
    4    2    3    1        0.0413397976
    4    2    3    3       -0.0123462588
    4    2    3    5       -0.0417602080
    4    3    3    2        0.0556366228
    4    3    3    4        0.0672648902
    4    3    3    6       -0.0288375310
    4    4    3    1       -0.0167188074
    4    4    3    3        0.2776232054
    4    4    3    5        0.0178286168
    4    5    3    2       -0.0748714891
    4    5    3    4       -0.0506605078
    4    5    3    6        0.0181482864
    4    6    3    1        0.0337559290
    4    6    3    3       -0.0507587188
    4    6    3    5       -0.0242259019
    4    1    4    1        0.0624062579
    4    1    4    3       -0.0069792692
    4    1    4    5        0.0032771043
    4    2    4    2        0.0649471709
    4    2    4    4       -0.0156561450
    4    2    4    6        0.0205667448
    4    3    4    1       -0.0069792692
    4    3    4    3        0.0799846697
    4    3    4    5       -0.0477797209
    4    4    4    2       -0.0156561450
    4    4    4    4        0.2674502544
    4    4    4    6       -0.0401900068
    4    5    4    1        0.0032771043
    4    5    4    3       -0.0477797209
    4    5    4    5        0.0703032413
    4    6    4    2        0.0205667448
    4    6    4    4       -0.0401900068
    4    6    4    6        0.0361337104
    4    1    5    2       -0.0337141893
    4    1    5    4        0.0031472632
    4    1    5    6        0.0078411068
    4    2    5    1       -0.0180037272
    4    2    5    3       -0.0480352130
    4    2    5    5       -0.0086065531
    4    3    5    2       -0.0165346471
    4    3    5    4       -0.0506605078
    4    3    5    6       -0.0335317409
    4    4    5    1        0.0039297537
    4    4    5    3        0.0178286168
    4    4    5    5        0.2319989830
    4    5    5    2       -0.0069615542
    4    5    5    4        0.0705465165
    4    5    5    6        0.0490458017
    4    6    5    1        0.0040168989
    4    6    5    3       -0.0223792187
    4    6    5    5       -0.0123545290
    4    1    6    1       -0.0261966879
    4    1    6    3        0.0230487483
    4    1    6    5        0.0078558027
    4    2    6    2       -0.0155160065
    4    2    6    4        0.0212743561
    4    2    6    6       -0.0010925133
    4    3    6    1        0.0061247580
    4    3    6    3       -0.0361140230
    4    3    6    5       -0.0356328673
    4    4    6    2       -0.0133135094
    4    4    6    4       -0.0401900068
    4    4    6    6        0.2125736103
    4    5    6    1        0.0085392372
    4    5    6    3        0.0176818994
    4    5    6    5        0.0490415920
    4    6    6    2        0.0002627473
    4    6    6    4        0.0364434365
    4    6    6    6       -0.0115160903
    5    1    1    1        0.0065294992
    5    1    1    3        0.0229061241
    5    1    1    5        0.0300808287
    5    2    1    2        0.0323309426
    5    2    1    4       -0.0308659979
    5    2    1    6       -0.0042754966
    5    3    1    1        0.0613604091
    5    3    1    3       -0.0362775388
    5    3    1    5        0.0075585083
    5    4    1    2       -0.0714417860
    5    4    1    4        0.0032771043
    5    4    1    6        0.0085392372
    5    5    1    1        0.2432399982
    5    5    1    3        0.0071650889
    5    5    1    5        0.0121504805
    5    6    1    2       -0.0469522450
    5    6    1    4        0.0078558027
    5    6    1    6       -0.0010596726
    5    1    2    2        0.0287901907
    5    1    2    4       -0.0161145844
    5    1    2    6       -0.0132956078
    5    2    2    1        0.0326876974
    5    2    2    3        0.0102266083
    5    2    2    5        0.0414184320
    5    3    2    2        0.0217295151
    5    3    2    4       -0.0417602080
    5    3    2    6        0.0008554214
    5    4    2    1       -0.0718472031
    5    4    2    3       -0.0748714891
    5    4    2    5       -0.0069615542
    5    5    2    2        0.2500583527
    5    5    2    4       -0.0086065531
    5    5    2    6       -0.0156133946
    5    6    2    1       -0.0466845542
    5    6    2    3       -0.0458279341
    5    6    2    5       -0.0017731019
    5    1    3    1        0.0232277349
    5    1    3    3       -0.0015684177
    5    1    3    5        0.0075585083
    5    2    3    2        0.0110897605
    5    2    3    4       -0.0123809851
    5    2    3    6       -0.0160081277
    5    3    3    1       -0.0338682241
    5    3    3    3        0.0276854885
    5    3    3    5        0.0416360519
    5    4    3    2       -0.0752415830
    5    4    3    4       -0.0477797209
    5    4    3    6        0.0176818994
    5    5    3    1        0.0071650889
    5    5    3    3        0.2404824697
    5    5    3    5        0.0109371612
    5    6    3    2       -0.0452396419
    5    6    3    4       -0.0356328673
    5    6    3    6        0.0090105641
    5    1    4    2       -0.0180037272
    5    1    4    4        0.0039297537
    5    1    4    6        0.0040168989
    5    2    4    1       -0.0337141893
    5    2    4    3       -0.0165346471
    5    2    4    5       -0.0069615542
    5    3    4    2       -0.0480352130
    5    3    4    4        0.0178286168
    5    3    4    6       -0.0223792187
    5    4    4    1        0.0031472632
    5    4    4    3       -0.0506605078
    5    4    4    5        0.0705465165
    5    5    4    2       -0.0086065531
    5    5    4    4        0.2319989830
    5    5    4    6       -0.0123545290
    5    6    4    1        0.0078411068
    5    6    4    3       -0.0335317409
    5    6    4    5        0.0490458017
    5    1    5    1        0.0357743220
    5    1    5    3        0.0072963655
    5    1    5    5        0.0121504805
    5    2    5    2        0.0485643721
    5    2    5    4       -0.0059179675
    5    2    5    6       -0.0027986332
    5    3    5    1        0.0072963655
    5    3    5    3        0.0439137348
    5    3    5    5        0.0109371612
    5    4    5    2       -0.0059179675
    5    4    5    4        0.0703032413
    5    4    5    6        0.0490415920
    5    5    5    1        0.0121504805
    5    5    5    3        0.0109371612
    5    5    5    5        0.2244596593
    5    6    5    2       -0.0027986332
    5    6    5    4        0.0490415920
    5    6    5    6        0.0494327268
    5    1    6    2       -0.0160188281
    5    1    6    4        0.0037268483
    5    1    6    6        0.0001662972
    5    2    6    1       -0.0055272878
    5    2    6    3       -0.0160689309
    5    2    6    5       -0.0017731019
    5    3    6    2        0.0024092950
    5    3    6    4       -0.0242259019
    5    3    6    6        0.0048736315
    5    4    6    1        0.0083989086
    5    4    6    3        0.0181482864
    5    4    6    5        0.0490458017
    5    5    6    2       -0.0156133946
    5    5    6    4       -0.0123545290
    5    5    6    6        0.2025201604
    5    6    6    1       -0.0009209701
    5    6    6    3        0.0087796950
    5    6    6    5        0.0494216736
    6    1    1    2       -0.0016283239
    6    1    1    4       -0.0226227460
    6    1    1    6        0.0215607074
    6    2    1    1       -0.0061531422
    6    2    1    3       -0.0289177526
    6    2    1    5       -0.0132956078
    6    3    1    2       -0.0456412613
    6    3    1    4        0.0225161425
    6    3    1    6       -0.0016359568
    6    4    1    1       -0.0732011393
    6    4    1    3        0.0337559290
    6    4    1    5        0.0040168989
    6    5    1    2       -0.0466845542
    6    5    1    4        0.0078411068
    6    5    1    6       -0.0009209701
    6    6    1    1        0.2201872419
    6    6    1    3       -0.0033576228
    6    6    1    5        0.0001662972
    6    1    2    1       -0.0021254564
    6    1    2    3       -0.0193883190
    6    1    2    5       -0.0042754966
    6    2    2    2       -0.0364403626
    6    2    2    4       -0.0121033737
    6    2    2    6        0.0231311908
    6    3    2    1       -0.0439417826
    6    3    2    3       -0.0315217403
    6    3    2    5       -0.0160081277
    6    4    2    2       -0.0369118607
    6    4    2    4        0.0205667448
    6    4    2    6        0.0002627473
    6    5    2    1       -0.0469522450
    6    5    2    3       -0.0452396419
    6    5    2    5       -0.0027986332
    6    6    2    2        0.2169279713
    6    6    2    4       -0.0010925133
    6    6    2    6       -0.0075468999
    6    1    3    2       -0.0201338458
    6    1    3    4        0.0065002473
    6    1    3    6       -0.0016359568
    6    2    3    1       -0.0280612068
    6    2    3    3       -0.0184411137
    6    2    3    5        0.0008554214
    6    3    3    2       -0.0291742995
    6    3    3    4       -0.0288375310
    6    3    3    6        0.0312777331
    6    4    3    1        0.0340429133
    6    4    3    3       -0.0507587188
    6    4    3    5       -0.0223792187
    6    5    3    2       -0.0458279341
    6    5    3    4       -0.0335317409
    6    5    3    6        0.0087796950
    6    6    3    1       -0.0033576228
    6    6    3    3        0.2199640893
    6    6    3    5        0.0048736315
    6    1    4    1       -0.0261966879
    6    1    4    3        0.0061247580
    6    1    4    5        0.0085392372
    6    2    4    2       -0.0155160065
    6    2    4    4       -0.0133135094
    6    2    4    6        0.0002627473
    6    3    4    1        0.0230487483
    6    3    4    3       -0.0361140230
    6    3    4    5        0.0176818994
    6    4    4    2        0.0212743561
    6    4    4    4       -0.0401900068
    6    4    4    6        0.0364434365
    6    5    4    1        0.0078558027
    6    5    4    3       -0.0356328673
    6    5    4    5        0.0490415920
    6    6    4    2       -0.0010925133
    6    6    4    4        0.2125736103
    6    6    4    6       -0.0115160903
    6    1    5    2       -0.0055272878
    6    1    5    4        0.0083989086
    6    1    5    6       -0.0009209701
    6    2    5    1       -0.0160188281
    6    2    5    3        0.0024092950
    6    2    5    5       -0.0156133946
    6    3    5    2       -0.0160689309
    6    3    5    4        0.0181482864
    6    3    5    6        0.0087796950
    6    4    5    1        0.0037268483
    6    4    5    3       -0.0242259019
    6    4    5    5       -0.0123545290
    6    5    5    2       -0.0017731019
    6    5    5    4        0.0490458017
    6    5    5    6        0.0494216736
    6    6    5    1        0.0001662972
    6    6    5    3        0.0048736315
    6    6    5    5        0.2025201604
    6    1    6    1        0.0267173158
    6    1    6    3       -0.0005273519
    6    1    6    5       -0.0010596726
    6    2    6    2        0.0288633743
    6    2    6    4        0.0002959240
    6    2    6    6       -0.0075468999
    6    3    6    1       -0.0005273519
    6    3    6    3        0.0363949405
    6    3    6    5        0.0090105641
    6    4    6    2        0.0002959240
    6    4    6    4        0.0361337104
    6    4    6    6       -0.0115160903
    6    5    6    1       -0.0010596726
    6    5    6    3        0.0090105641
    6    5    6    5        0.0494327268
    6    6    6    2       -0.0075468999
    6    6    6    4       -0.0115160903
    6    6    6    6        0.1964910895
 end_two_electron_integrals

 Task  times  cpu:     1889.2s     wall:     1889.2s
 
 
                                NWChem Input Module
                                -------------------
 
 
 Summary of allocated global arrays
-----------------------------------
  No active global arrays


MA_summarize_allocated_blocks: starting scan ...
MA_summarize_allocated_blocks: scan completed: 0 heap blocks, 0 stack blocks
MA usage statistics:

	allocation statistics:
					      heap	     stack
					      ----	     -----
	current number of blocks	         0	         0
	maximum number of blocks	        16	        42
	current total bytes		         0	         0
	maximum total bytes		     80104	20728605000
	maximum total K-bytes		        81	  20728605
	maximum total M-bytes		         1	     20729
 
 
                                     CITATION
                                     --------
                Please cite the following reference when publishing
                           results obtained with NWChem:
 
          E. Apra, E. J. Bylaska, W. A. de Jong, N. Govind, K. Kowalski,
       T. P. Straatsma, M. Valiev, H. J. J. van Dam, Y. Alexeev, J. Anchell,
       V. Anisimov, F. W. Aquino, R. Atta-Fynn, J. Autschbach, N. P. Bauman,
     J. C. Becca, D. E. Bernholdt, K. Bhaskaran-Nair, S. Bogatko, P. Borowski,
         J. Boschen, J. Brabec, A. Bruner, E. Cauet, Y. Chen, G. N. Chuev,
      C. J. Cramer, J. Daily, M. J. O. Deegan, T. H. Dunning Jr., M. Dupuis,
   K. G. Dyall, G. I. Fann, S. A. Fischer, A. Fonari, H. Fruchtl, L. Gagliardi,
      J. Garza, N. Gawande, S. Ghosh, K. Glaesemann, A. W. Gotz, J. Hammond,
       V. Helms, E. D. Hermes, K. Hirao, S. Hirata, M. Jacquelin, L. Jensen,
   B. G. Johnson, H. Jonsson, R. A. Kendall, M. Klemm, R. Kobayashi, V. Konkov,
      S. Krishnamoorthy, M. Krishnan, Z. Lin, R. D. Lins, R. J. Littlefield,
      A. J. Logsdail, K. Lopata, W. Ma, A. V. Marenich, J. Martin del Campo,
   D. Mejia-Rodriguez, J. E. Moore, J. M. Mullin, T. Nakajima, D. R. Nascimento,
    J. A. Nichols, P. J. Nichols, J. Nieplocha, A. Otero-de-la-Roza, B. Palmer,
    A. Panyala, T. Pirojsirikul, B. Peng, R. Peverati, J. Pittner, L. Pollack,
   R. M. Richard, P. Sadayappan, G. C. Schatz, W. A. Shelton, D. W. Silverstein,
   D. M. A. Smith, T. A. Soares, D. Song, M. Swart, H. L. Taylor, G. S. Thomas,
            V. Tipparaju, D. G. Truhlar, K. Tsemekhman, T. Van Voorhis,
      A. Vazquez-Mayagoitia, P. Verma, O. Villa, A. Vishnu, K. D. Vogiatzis,
        D. Wang, J. H. Weare, M. J. Williamson, T. L. Windus, K. Wolinski,
        A. T. Wong, Q. Wu, C. Yang, Q. Yu, M. Zacharias, Z. Zhang, Y. Zhao,
                                and R. J. Harrison
                        "NWChem: Past, present, and future
                         J. Chem. Phys. 152, 184102 (2020)
                               doi:10.1063/5.0004997
 
                                      AUTHORS
                                      -------
  E. Apra, E. J. Bylaska, N. Govind, K. Kowalski, M. Valiev, D. Mejia-Rodriguez,
       A. Kunitsa, N. P. Bauman, A. Panyala, W. A. de Jong, T. P. Straatsma,
   H. J. J. van Dam, D. Wang, T. L. Windus, J. Hammond, J. Autschbach, A. Woods,
    K. Bhaskaran-Nair, J. Brabec, K. Lopata, S. A. Fischer, S. Krishnamoorthy,
     M. Jacquelin, W. Ma, M. Klemm, O. Villa, Y. Chen, V. Anisimov, F. Aquino,
     S. Hirata, M. T. Hackler, E. Hermes, L. Jensen, J. E. Moore, J. C. Becca,
      V. Konjkov, T. Risthaus, M. Malagoli, A. Marenich, A. Otero-de-la-Roza,
        J. Mullin, P. Nichols, R. Peverati, J. Pittner, Y. Zhao, P.-D. Fan,
        A. Fonari, M. J. Williamson, R. J. Harrison, J. R. Rehr, M. Dupuis,
     D. Silverstein, D. M. A. Smith, J. Nieplocha, V. Tipparaju, M. Krishnan,
     B. E. Van Kuiken, A. Vazquez-Mayagoitia, M. Swart, Q. Wu, T. Van Voorhis,
     A. A. Auer, M. Nooijen, L. D. Crosby, E. Brown, G. Cisneros, G. I. Fann,
   H. Fruchtl, J. Garza, K. Hirao, R. A. Kendall, J. A. Nichols, K. Tsemekhman,
    K. Wolinski, J. Anchell, D. E. Bernholdt, P. Borowski, T. Clark, D. Clerc,
   H. Dachsel, M. J. O. Deegan, K. Dyall, D. Elwood, E. Glendening, M. Gutowski,
   A. C. Hess, J. Jaffe, B. G. Johnson, J. Ju, R. Kobayashi, R. Kutteh, Z. Lin,
   R. Littlefield, X. Long, B. Meng, T. Nakajima, S. Niu, L. Pollack, M. Rosing,
   K. Glaesemann, G. Sandrone, M. Stave, H. Taylor, G. Thomas, J. H. van Lenthe,
                               A. T. Wong, Z. Zhang.

 Total times  cpu:     1889.6s     wall:     1889.6s
