 argument  1 = input.nw
  NWChem w/ OpenMP: maximum threads =    1
 


============================== echo of input deck ==============================

echo
start H6
title "H6"

memory total 80 gb

geometry units bohr
symmetry c1
H 0 0 0
H 0 0 2.35
H 0 0 4.70
H 0 0 7.05
H 0 0 9.40
H 0 0 11.75
end

basis spherical
  * library cc-pVTZ
end

scf
thresh 1e-8
end

tce
  2eorb
  2emet 13
  ccsd
  thresh 1e-8
  maxiter 300
end

# set tce:print_integrals T
# set tce:qorb 6
# set tce:qela 3
# set tce:qelb 3

set tce:qducc T
set tce:nactv 3
set tce:nonhf T
set tce:ducc_model 6

set tce:printtol 0.02

task tce
================================================================================


                                         
                                         
 
 
             Northwest Computational Chemistry Package (NWChem) 7.2.3
             --------------------------------------------------------
 
 
                    Environmental Molecular Sciences Laboratory
                       Pacific Northwest National Laboratory
                                Richland, WA 99352
 
                              Copyright (c) 1994-2022
                       Pacific Northwest National Laboratory
                            Battelle Memorial Institute
 
             NWChem is an open-source computational chemistry package
                        distributed under the terms of the
                      Educational Community License (ECL) 2.0
             A copy of the license is included with this distribution
                              in the LICENSE.TXT file
 
                                  ACKNOWLEDGMENT
                                  --------------

            This software and its documentation were developed at the
            EMSL at Pacific Northwest National Laboratory, a multiprogram
            national laboratory, operated for the U.S. Department of Energy
            by Battelle under Contract Number DE-AC05-76RL01830. Support
            for this work was provided by the Department of Energy Office
            of Biological and Environmental Research, Office of Basic
            Energy Sciences, and the Office of Advanced Scientific Computing.


           Job information
           ---------------

    hostname        = koothan
    program         = /hpc/home/baum612/code/nwchem/bin/LINUX64/nwchem
    date            = Fri Nov 15 13:20:29 2024

    compiled        = Wed_Nov_13_16:23:19_2024
    source          = /hpc/home/baum612/code/nwchem
    nwchem branch   = 7.2.3
    nwchem revision = v7.2.0-beta1-1280-g0779ca2e41
    ga revision     = 5.8.0
    use scalapack   = T
    input           = input.nw
    prefix          = H6.
    data base       = ./H6.db
    status          = startup
    nproc           =        1
    time left       =     -1s



           Memory information
           ------------------

    heap     =   2684354560 doubles =    20480.0 Mbytes
    stack    =   2684354557 doubles =    20480.0 Mbytes
    global   =   5368709120 doubles =    40960.0 Mbytes (distinct from heap & stack)
    total    =  10737418237 doubles =    81920.0 Mbytes
    verify   = yes
    hardfail = no 


           Directory information
           ---------------------
 
  0 permanent = .
  0 scratch   = .
 
 
 
 
                                NWChem Input Module
                                -------------------
 
 
                                        H6
                                        --
 Turning off AUTOSYM since
 SYMMETRY directive was detected!
 

          ------
          auto-z
          ------
     1 autoz failed with cvr_scaling = 1.2 changing to 1.3
     2 autoz failed with cvr_scaling = 1.3 changing to 1.4
     3 autoz failed with cvr_scaling = 1.4 changing to 1.5
     4 autoz failed with cvr_scaling = 1.5 changing to 1.6
  Looking for out-of-plane bends
  autoz: insufficient variables                      5                    12
     5 autoz failed with cvr_scaling = 1.6 changing to 1.7
  Looking for out-of-plane bends
  autoz: insufficient variables                      5                    12

 AUTOZ failed to generate good internal coordinates.
 Cartesian coordinates will be used in optimizations.

 
 
                             Geometry "geometry" -> ""
                             -------------------------
 
 Output coordinates in a.u. (scale by  1.000000000 to convert to a.u.)
 
  No.       Tag          Charge          X              Y              Z
 ---- ---------------- ---------- -------------- -------------- --------------
    1 H                    1.0000     0.00000000     0.00000000    -5.87500000
    2 H                    1.0000     0.00000000     0.00000000    -3.52500000
    3 H                    1.0000     0.00000000     0.00000000    -1.17500000
    4 H                    1.0000     0.00000000     0.00000000     1.17500000
    5 H                    1.0000     0.00000000     0.00000000     3.52500000
    6 H                    1.0000     0.00000000     0.00000000     5.87500000
 
      Atomic Mass 
      ----------- 
 
      H                  1.007825
 

 Effective nuclear repulsion energy (a.u.)       3.7021276596

            Nuclear Dipole moment (a.u.) 
            ----------------------------
        X                 Y               Z
 ---------------- ---------------- ----------------
     0.0000000000     0.0000000000     0.0000000000
 
 
            XYZ format geometry
            -------------------
     6
 geometry
 H                     0.00000000     0.00000000    -3.10891634
 H                     0.00000000     0.00000000    -1.86534980
 H                     0.00000000     0.00000000    -0.62178327
 H                     0.00000000     0.00000000     0.62178327
 H                     0.00000000     0.00000000     1.86534980
 H                     0.00000000     0.00000000     3.10891634
 


 Summary of "ao basis" -> "" (spherical)
 ------------------------------------------------------------------------------
       Tag                 Description            Shells   Functions and Types
 ---------------- ------------------------------  ------  ---------------------
 *                          cc-pVTZ                   on all atoms 


                      Basis "ao basis" -> "ao basis" (spherical)
                      -----
  H (Hydrogen)
  ------------
            Exponent  Coefficients 
       -------------- ---------------------------------------------------------
  1 S  3.38700000E+01  0.006068
  1 S  5.09500000E+00  0.045308
  1 S  1.15900000E+00  0.202822
 
  2 S  3.25800000E-01  1.000000
 
  3 S  1.02700000E-01  1.000000
 
  4 P  1.40700000E+00  1.000000
 
  5 P  3.88000000E-01  1.000000
 
  6 D  1.05700000E+00  1.000000
 


 Summary of "ao basis" -> "ao basis" (spherical)
 ------------------------------------------------------------------------------
       Tag                 Description            Shells   Functions and Types
 ---------------- ------------------------------  ------  ---------------------
 H                          cc-pVTZ                  6       14   3s2p1d


                                 NWChem SCF Module
                                 -----------------
 
 
                                        H6
 
 

  ao basis        = "ao basis"
  functions       =    84
  atoms           =     6
  closed shells   =     3
  open shells     =     0
  charge          =   0.00
  wavefunction    = RHF 
  input vectors   = atomic
  output vectors  = ./H6.movecs
  use symmetry    = F
  symmetry adapt  = F


 Summary of "ao basis" -> "ao basis" (spherical)
 ------------------------------------------------------------------------------
       Tag                 Description            Shells   Functions and Types
 ---------------- ------------------------------  ------  ---------------------
 H                          cc-pVTZ                  6       14   3s2p1d



 Forming initial guess at       1.8s

 
      Superposition of Atomic Density Guess
      -------------------------------------
 
 Sum of atomic energies:          -2.99885518
 
      Non-variational initial energy
      ------------------------------

 Total energy =      -2.465628
 1-e energy   =     -10.273511
 2-e energy   =       4.105754
 HOMO         =      -0.281044
 LUMO         =      -0.087586
 

 Starting SCF solution at       1.9s



 ----------------------------------------------
         Quadratically convergent ROHF

 Convergence threshold     :          1.000E-08
 Maximum no. of iterations :           30
 Final Fock-matrix accuracy:          1.000E-10
 ----------------------------------------------


              iter       energy          gnorm     gmax       time
             ----- ------------------- --------- --------- --------
                 1       -3.1352332163  1.96D-01  1.13D-01      2.1
                 2       -3.1448869782  6.16D-02  2.99D-02      2.5
                 3       -3.1454459778  3.25D-03  1.69D-03      2.9
                 4       -3.1454484045  2.12D-06  1.36D-06      3.6
                 5       -3.1454484045  1.28D-10  6.57D-11      4.5


       Final RHF  results 
       ------------------ 

         Total SCF energy =     -3.145448404541
      One-electron energy =    -10.695891246506
      Two-electron energy =      3.848315182391
 Nuclear repulsion energy =      3.702127659574

        Time for solution =      2.6s


             Final eigenvalues
             -----------------

              1      
    1   -0.6001
    2   -0.5147
    3   -0.3848
    4   -0.0148
    5    0.1459
    6    0.2816
    7    0.3387
    8    0.4087
    9    0.4289
   10    0.5332
   11    0.5728
   12    0.5728
   13    0.5858
 
                       ROHF Final Molecular Orbital Analysis
                       -------------------------------------
 
 Vector    1  Occ=2.000000D+00  E=-6.000939D-01
              MO Center= -2.5D-17,  3.6D-17,  5.5D-12, r^2= 3.1D+00
   Bfn.  Coefficient  Atom+Function         Bfn.  Coefficient  Atom+Function  
  ----- ------------  ---------------      ----- ------------  ---------------
    30      0.208520  3 H  s                 44      0.208520  4 H  s          
    16      0.156119  2 H  s                 58      0.156119  5 H  s          
 
 Vector    2  Occ=2.000000D+00  E=-5.147090D-01
              MO Center=  8.5D-18,  1.5D-17, -1.6D-12, r^2= 6.4D+00
   Bfn.  Coefficient  Atom+Function         Bfn.  Coefficient  Atom+Function  
  ----- ------------  ---------------      ----- ------------  ---------------
    16      0.207071  2 H  s                 58     -0.207071  5 H  s          
    17      0.181660  2 H  s                 59     -0.181660  5 H  s          
     2      0.177557  1 H  s                 72     -0.177557  6 H  s          
 
 Vector    3  Occ=2.000000D+00  E=-3.848276D-01
              MO Center= -6.8D-16,  2.9D-16, -5.7D-12, r^2= 6.1D+00
   Bfn.  Coefficient  Atom+Function         Bfn.  Coefficient  Atom+Function  
  ----- ------------  ---------------      ----- ------------  ---------------
    31      0.214476  3 H  s                 45      0.214476  4 H  s          
     2     -0.193046  1 H  s                 30      0.192543  3 H  s          
    44      0.192543  4 H  s                 72     -0.193046  6 H  s          
     3     -0.180613  1 H  s                 73     -0.180613  6 H  s          
    17     -0.166240  2 H  s                 59     -0.166240  5 H  s          
 
 Vector    4  Occ=0.000000D+00  E=-1.479645D-02
              MO Center=  2.2D-17,  6.0D-19, -1.1D-11, r^2= 7.5D+00
   Bfn.  Coefficient  Atom+Function         Bfn.  Coefficient  Atom+Function  
  ----- ------------  ---------------      ----- ------------  ---------------
     3      0.559253  1 H  s                 73     -0.559253  6 H  s          
    17     -0.368342  2 H  s                 59      0.368342  5 H  s          
    31     -0.233796  3 H  s                 45      0.233796  4 H  s          
    30     -0.187583  3 H  s                 44      0.187583  4 H  s          
     2      0.151974  1 H  s                 72     -0.151974  6 H  s          
 
 Vector    5  Occ=0.000000D+00  E= 1.458509D-01
              MO Center=  3.9D-16, -2.1D-16,  6.2D-12, r^2= 1.1D+01
   Bfn.  Coefficient  Atom+Function         Bfn.  Coefficient  Atom+Function  
  ----- ------------  ---------------      ----- ------------  ---------------
    17      1.199928  2 H  s                 59      1.199928  5 H  s          
     3     -1.074945  1 H  s                 73     -1.074945  6 H  s          
    31     -0.506893  3 H  s                 45     -0.506893  4 H  s          
    16      0.199166  2 H  s                 58      0.199166  5 H  s          
 
 Vector    6  Occ=0.000000D+00  E= 2.815679D-01
              MO Center=  1.8D-17,  3.0D-17,  1.4D-11, r^2= 1.3D+01
   Bfn.  Coefficient  Atom+Function         Bfn.  Coefficient  Atom+Function  
  ----- ------------  ---------------      ----- ------------  ---------------
    31      3.137520  3 H  s                 45     -3.137520  4 H  s          
    17     -2.415228  2 H  s                 59      2.415228  5 H  s          
     3      1.675525  1 H  s                 73     -1.675525  6 H  s          
     2     -0.439391  1 H  s                 72      0.439391  6 H  s          
 
 Vector    7  Occ=0.000000D+00  E= 3.386676D-01
              MO Center=  7.0D-16, -1.4D-15,  1.5D-10, r^2= 5.7D+00
   Bfn.  Coefficient  Atom+Function         Bfn.  Coefficient  Atom+Function  
  ----- ------------  ---------------      ----- ------------  ---------------
    30      0.652926  3 H  s                 44      0.652926  4 H  s          
    31     -0.521557  3 H  s                 45     -0.521557  4 H  s          
    17     -0.508232  2 H  s                 59     -0.508232  5 H  s          
    16      0.456584  2 H  s                 58      0.456584  5 H  s          
     2      0.394016  1 H  s                 72      0.394016  6 H  s          
 
 Vector    8  Occ=0.000000D+00  E= 4.086627D-01
              MO Center= -1.9D-16,  8.9D-16, -4.5D-11, r^2= 7.1D+00
   Bfn.  Coefficient  Atom+Function         Bfn.  Coefficient  Atom+Function  
  ----- ------------  ---------------      ----- ------------  ---------------
    17      2.091070  2 H  s                 59     -2.091070  5 H  s          
    31     -1.225482  3 H  s                 45      1.225482  4 H  s          
    16     -0.655873  2 H  s                 58      0.655873  5 H  s          
     2     -0.474345  1 H  s                 72      0.474345  6 H  s          
    30     -0.408127  3 H  s                 44      0.408127  4 H  s          
 
 Vector    9  Occ=0.000000D+00  E= 4.288628D-01
              MO Center= -3.6D-16, -2.6D-16, -2.7D-11, r^2= 1.1D+01
   Bfn.  Coefficient  Atom+Function         Bfn.  Coefficient  Atom+Function  
  ----- ------------  ---------------      ----- ------------  ---------------
     3      1.144273  1 H  s                 73      1.144273  6 H  s          
     2     -0.856164  1 H  s                 72     -0.856164  6 H  s          
    31     -0.461016  3 H  s                 45     -0.461016  4 H  s          
    30      0.385172  3 H  s                 44      0.385172  4 H  s          
    17     -0.346283  2 H  s                 59     -0.346283  5 H  s          
 
 Vector   10  Occ=0.000000D+00  E= 5.332301D-01
              MO Center= -1.2D-16,  1.7D-16,  1.9D-10, r^2= 8.6D+00
   Bfn.  Coefficient  Atom+Function         Bfn.  Coefficient  Atom+Function  
  ----- ------------  ---------------      ----- ------------  ---------------
     3      1.099539  1 H  s                 73     -1.099539  6 H  s          
    17     -0.980855  2 H  s                 59      0.980855  5 H  s          
    16      0.768456  2 H  s                 58     -0.768456  5 H  s          
     2     -0.697276  1 H  s                 72      0.697276  6 H  s          
    31     -0.507499  3 H  s                 45      0.507499  4 H  s          
 
 Vector   11  Occ=0.000000D+00  E= 5.727541D-01
              MO Center= -1.6D-16,  1.3D-15,  7.9D-12, r^2= 3.2D+00
   Bfn.  Coefficient  Atom+Function         Bfn.  Coefficient  Atom+Function  
  ----- ------------  ---------------      ----- ------------  ---------------
    36      0.423620  3 H  py                50      0.423620  4 H  py         
    22      0.333966  2 H  py                64      0.333966  5 H  py         
     8      0.185292  1 H  py                78      0.185292  6 H  py         
 
 Vector   12  Occ=0.000000D+00  E= 5.727541D-01
              MO Center= -3.2D-16, -8.6D-17,  7.8D-12, r^2= 3.2D+00
   Bfn.  Coefficient  Atom+Function         Bfn.  Coefficient  Atom+Function  
  ----- ------------  ---------------      ----- ------------  ---------------
    35      0.423620  3 H  px                49      0.423620  4 H  px         
    21      0.333966  2 H  px                63      0.333966  5 H  px         
     7      0.185292  1 H  px                77      0.185292  6 H  px         
 
 Vector   13  Occ=0.000000D+00  E= 5.857963D-01
              MO Center=  3.3D-17,  4.1D-16, -5.7D-11, r^2= 7.2D+00
   Bfn.  Coefficient  Atom+Function         Bfn.  Coefficient  Atom+Function  
  ----- ------------  ---------------      ----- ------------  ---------------
    17      2.909036  2 H  s                 59      2.909036  5 H  s          
    31     -1.712268  3 H  s                 45     -1.712268  4 H  s          
     3     -1.147569  1 H  s                 73     -1.147569  6 H  s          
    16     -0.955915  2 H  s                 58     -0.955915  5 H  s          
    30      0.619214  3 H  s                 44      0.619214  4 H  s          
 

 center of mass
 --------------
 x =   0.00000000 y =   0.00000000 z =  -0.00000000

 moments of inertia (a.u.)
 ------------------
          97.399987343750           0.000000000000           0.000000000000
           0.000000000000          97.399987343750           0.000000000000
           0.000000000000           0.000000000000           0.000000000000
 
  Mulliken analysis of the total density
  --------------------------------------

    Atom       Charge   Shell Charges
 -----------   ------   -------------------------------------------------------
    1 H    1     0.96   0.16  0.46  0.34  0.00  0.01  0.00
    2 H    1     1.06   0.17  0.49  0.38  0.00  0.02  0.00
    3 H    1     0.98   0.17  0.49  0.30  0.00  0.02  0.00
    4 H    1     0.98   0.17  0.49  0.30  0.00  0.02  0.00
    5 H    1     1.06   0.17  0.49  0.38  0.00  0.02  0.00
    6 H    1     0.96   0.16  0.46  0.34  0.00  0.01  0.00
 
       Multipole analysis of the density wrt the origin
       ------------------------------------------------
 
     L   x y z        total         open         nuclear
     -   - - -        -----         ----         -------
     0   0 0 0     -0.000000      0.000000      6.000000
 
     1   1 0 0      0.000000      0.000000      0.000000
     1   0 1 0     -0.000000      0.000000      0.000000
     1   0 0 1      0.000000      0.000000      0.000000
 
     2   2 0 0     -5.938247      0.000000      0.000000
     2   1 1 0      0.000000      0.000000      0.000000
     2   1 0 1     -0.000000      0.000000      0.000000
     2   0 2 0     -5.938247      0.000000      0.000000
     2   0 1 1     -0.000000      0.000000      0.000000
     2   0 0 2     -3.249133      0.000000     96.643750
 
                   NWChem Extensible Many-Electron Theory Module
                   ---------------------------------------------
 
              ======================================================
                   This portion of the program was automatically
                  generated by a Tensor Contraction Engine (TCE).
                  The development of this portion of the program
                 and TCE was supported by US Department of Energy,
                Office of Science, Office of Basic Energy Science.
                      TCE is a product of Battelle and PNNL.
              Please cite: S.Hirata, J.Phys.Chem.A 107, 9887 (2003).
              ======================================================
 
                                        H6
 
 
            General Information
            -------------------
      Number of processors :     1
         Wavefunction type : Restricted Hartree-Fock
          No. of electrons :     6
           Alpha electrons :     3
            Beta electrons :     3
           No. of orbitals :   168
            Alpha orbitals :    84
             Beta orbitals :    84
        Alpha frozen cores :     0
         Beta frozen cores :     0
     Alpha frozen virtuals :     0
      Beta frozen virtuals :     0
         Spin multiplicity : singlet 
    Number of AO functions :    84
       Number of AO shells :    36
        Use of symmetry is : off
      Symmetry adaption is : off
         Schwarz screening : 0.10D-09
 
          Correlation Information
          -----------------------
          Calculation type : Coupled-cluster singles & doubles                           
   Perturbative correction : none                                                        
            Max iterations :      300
        Residual threshold : 0.10D-07
     T(0) DIIS level shift : 0.00D+00
     L(0) DIIS level shift : 0.00D+00
     T(1) DIIS level shift : 0.00D+00
     L(1) DIIS level shift : 0.00D+00
     T(R) DIIS level shift : 0.00D+00
     T(I) DIIS level shift : 0.00D+00
   CC-T/L Amplitude update :  5-th order DIIS
                I/O scheme : Global Array Library
        L-threshold :  0.10D-07
        EOM-threshold :  0.10D-07
 no EOMCCSD initial starts read in
 TCE RESTART OPTIONS
 READ_INT:   F
 WRITE_INT:  F
 READ_TA:    F
 WRITE_TA:   F
 READ_XA:    F
 WRITE_XA:   F
 READ_IN3:   F
 WRITE_IN3:  F
 SLICE:      F
 D4D5:       F
 quantumc:   F
 qrotation:  F
 pwtce:      F
 qducc:      T
 nacto:                          0
 nrotv:                          0
 nrot:                           0
 
            Memory Information
            ------------------
          Available GA space size is    5368702064 doubles
          Available MA space size is    5368706460 doubles
 
 Maximum block size        32 doubles

 tile_dim =     27

 Block   Spin    Irrep     Size     Offset   Alpha
 -------------------------------------------------
   1    alpha     a      3 doubles       0       1
   2    beta      a      3 doubles       3       1
   3    alpha     a     27 doubles       6       3
   4    alpha     a     27 doubles      33       4
   5    alpha     a     27 doubles      60       5
   6    beta      a     27 doubles      87       3
   7    beta      a     27 doubles     114       4
   8    beta      a     27 doubles     141       5

 Global array virtual files algorithm will be used

 Parallel file system coherency ......... OK
 
 Fock matrix recomputed
 1-e file size   =             7056
 1-e file name   = ./H6.f1
 Cpu & wall time / sec            0.2            0.2
 4-electron integrals stored in orbital form
 
 v2    file size   =         12304143
 4-index algorithm nr.  13 is used
 imaxsize =       30
 imaxsize ichop =        0
 Cpu & wall time / sec            9.1            9.1
 T1-number-of-tasks                     3
 
 t1 file size   =              243
 t1 file name   = ./H6.t1
 t1 file handle =       -998
 T2-number-of-boxes                    15
 
 t2 file size   =            98415
 t2 file name   = ./H6.t2
 t2 file handle =       -996
CCSD iterations
 ---------------------------------------------------------
 Iter          Residuum       Correlation     Cpu    Wall 
 ---------------------------------------------------------
NEW TASK SCHEDULING
CCSD_T1_NTS --- OK
CCSD_T2_NTS --- OK
    1   0.1372712990816  -0.1218047456475     1.0     1.0
    2   0.0575326122292  -0.1443405766790     1.0     1.0
    3   0.0299299718519  -0.1530645352065     1.0     1.0
    4   0.0172740394794  -0.1569903858393     1.0     1.0
    5   0.0106839519975  -0.1590539577853     1.0     1.0
 MICROCYCLE DIIS UPDATE:                     5                     5
    6   0.0037076817419  -0.1617789497123     1.0     1.0
    7   0.0024003990833  -0.1617731630023     1.0     1.0
    8   0.0015903345221  -0.1617903967563     1.0     1.0
    9   0.0011669080895  -0.1618070896667     1.0     1.0
   10   0.0008288253717  -0.1618313219455     1.0     1.0
 MICROCYCLE DIIS UPDATE:                    10                     5
   11   0.0001620720083  -0.1618968790119     1.0     1.0
   12   0.0000711335618  -0.1619133689167     1.0     1.0
   13   0.0000402196083  -0.1619224778045     0.9     0.9
   14   0.0000237297894  -0.1619265863605     0.9     0.9
   15   0.0000148874759  -0.1619289947494     1.0     1.0
 MICROCYCLE DIIS UPDATE:                    15                     5
   16   0.0000051129978  -0.1619322640502     1.0     1.0
   17   0.0000034495589  -0.1619322951308     1.0     1.0
   18   0.0000022778947  -0.1619323145616     1.0     1.0
   19   0.0000016811012  -0.1619323298540     1.0     1.0
   20   0.0000011890602  -0.1619323607979     1.0     1.0
 MICROCYCLE DIIS UPDATE:                    20                     5
   21   0.0000002345017  -0.1619324427131     1.0     1.0
   22   0.0000001026570  -0.1619324709212     1.0     1.0
   23   0.0000000557201  -0.1619324836680     1.0     1.0
   24   0.0000000323670  -0.1619324898185     1.0     1.0
   25   0.0000000197387  -0.1619324932949     1.0     1.0
 MICROCYCLE DIIS UPDATE:                    25                     5
   26   0.0000000060744  -0.1619324980319     1.0     1.0
 -----------------------------------------------------------------
 Iterations converged
 CCSD correlation energy / hartree =        -0.161932498031923
 CCSD total energy / hartree       =        -3.307380902572472

 Singles contributions
     4a   (alpha) ---     2a   (alpha)       -0.0210548931
     8a   (alpha) ---     2a   (alpha)       -0.0211499562
     9a   (alpha) ---     3a   (alpha)        0.0248953611

 Doubles contributions
     4a   (alpha)     5a   (alpha) ---     2a   (alpha)     3a   (alpha)       -0.0395205974
     4a   (alpha)     5a   (alpha) ---     3a   (alpha)     2a   (alpha)        0.0395205974
     4a   (alpha)     6a   (alpha) ---     1a   (alpha)     3a   (alpha)        0.0208379144
     4a   (alpha)     6a   (alpha) ---     3a   (alpha)     1a   (alpha)       -0.0208379144
     5a   (alpha)     4a   (alpha) ---     2a   (alpha)     3a   (alpha)        0.0395205974
     5a   (alpha)     4a   (alpha) ---     3a   (alpha)     2a   (alpha)       -0.0395205974
     6a   (alpha)     4a   (alpha) ---     1a   (alpha)     3a   (alpha)       -0.0208379144
     6a   (alpha)     4a   (alpha) ---     3a   (alpha)     1a   (alpha)        0.0208379144
     4a   (alpha)     4a   (beta ) ---     1a   (alpha)     1a   (beta )       -0.0497304312
     4a   (alpha)     4a   (beta ) ---     2a   (alpha)     2a   (beta )       -0.0737697360
     4a   (alpha)     4a   (beta ) ---     3a   (alpha)     3a   (beta )       -0.2037494418
     4a   (alpha)     5a   (beta ) ---     1a   (alpha)     2a   (beta )        0.0340881279
     4a   (alpha)     5a   (beta ) ---     2a   (alpha)     3a   (beta )       -0.0826368262
     4a   (alpha)     5a   (beta ) ---     3a   (alpha)     2a   (beta )       -0.0431162289
     4a   (alpha)     6a   (beta ) ---     1a   (alpha)     3a   (beta )        0.0396868793
     4a   (alpha)     6a   (beta ) ---     3a   (alpha)     3a   (beta )        0.0456970010
     4a   (alpha)     7a   (beta ) ---     2a   (alpha)     3a   (beta )        0.0242852392
     4a   (alpha)     7a   (beta ) ---     3a   (alpha)     2a   (beta )        0.0206947380
     4a   (alpha)     8a   (beta ) ---     1a   (alpha)     3a   (beta )       -0.0312016215
     4a   (alpha)     8a   (beta ) ---     3a   (alpha)     1a   (beta )       -0.0244993355
     4a   (alpha)     9a   (beta ) ---     1a   (alpha)     2a   (beta )        0.0246244888
     4a   (alpha)     9a   (beta ) ---     2a   (alpha)     1a   (beta )        0.0216370542
     4a   (alpha)     9a   (beta ) ---     2a   (alpha)     3a   (beta )       -0.0392088252
     4a   (alpha)     9a   (beta ) ---     3a   (alpha)     2a   (beta )       -0.0312664730
     4a   (alpha)    10a   (beta ) ---     1a   (alpha)     3a   (beta )       -0.0462209527
     4a   (alpha)    10a   (beta ) ---     2a   (alpha)     2a   (beta )        0.0337165388
     4a   (alpha)    10a   (beta ) ---     3a   (alpha)     1a   (beta )       -0.0272958147
     4a   (alpha)    10a   (beta ) ---     3a   (alpha)     3a   (beta )        0.0246735041
     4a   (alpha)    13a   (beta ) ---     2a   (alpha)     3a   (beta )        0.0250600043
     4a   (alpha)    16a   (beta ) ---     1a   (alpha)     3a   (beta )       -0.0285857336
     5a   (alpha)     4a   (beta ) ---     2a   (alpha)     1a   (beta )        0.0340881279
     5a   (alpha)     4a   (beta ) ---     2a   (alpha)     3a   (beta )       -0.0431162289
     5a   (alpha)     4a   (beta ) ---     3a   (alpha)     2a   (beta )       -0.0826368262
     5a   (alpha)     5a   (beta ) ---     1a   (alpha)     1a   (beta )       -0.0294156853
     5a   (alpha)     5a   (beta ) ---     2a   (alpha)     2a   (beta )       -0.0599933133
     5a   (alpha)     5a   (beta ) ---     3a   (alpha)     3a   (beta )       -0.0481979209
     5a   (alpha)     9a   (beta ) ---     2a   (alpha)     2a   (beta )       -0.0268829516
     5a   (alpha)    10a   (beta ) ---     1a   (alpha)     2a   (beta )       -0.0293779136
     5a   (alpha)    10a   (beta ) ---     2a   (alpha)     1a   (beta )       -0.0247677612
     5a   (alpha)    10a   (beta ) ---     2a   (alpha)     3a   (beta )        0.0259943753
     5a   (alpha)    10a   (beta ) ---     3a   (alpha)     2a   (beta )        0.0232851687
     5a   (alpha)    13a   (beta ) ---     2a   (alpha)     2a   (beta )        0.0217021473
     6a   (alpha)     4a   (beta ) ---     3a   (alpha)     1a   (beta )        0.0396868793
     6a   (alpha)     4a   (beta ) ---     3a   (alpha)     3a   (beta )        0.0456970010
     6a   (alpha)     6a   (beta ) ---     1a   (alpha)     1a   (beta )       -0.0215485435
     6a   (alpha)     6a   (beta ) ---     3a   (alpha)     3a   (beta )       -0.0273584259
     7a   (alpha)     4a   (beta ) ---     2a   (alpha)     3a   (beta )        0.0206947380
     7a   (alpha)     4a   (beta ) ---     3a   (alpha)     2a   (beta )        0.0242852392
     8a   (alpha)     4a   (beta ) ---     1a   (alpha)     3a   (beta )       -0.0244993355
     8a   (alpha)     4a   (beta ) ---     3a   (alpha)     1a   (beta )       -0.0312016215
     9a   (alpha)     4a   (beta ) ---     1a   (alpha)     2a   (beta )        0.0216370542
     9a   (alpha)     4a   (beta ) ---     2a   (alpha)     1a   (beta )        0.0246244888
     9a   (alpha)     4a   (beta ) ---     2a   (alpha)     3a   (beta )       -0.0312664730
     9a   (alpha)     4a   (beta ) ---     3a   (alpha)     2a   (beta )       -0.0392088252
     9a   (alpha)     5a   (beta ) ---     2a   (alpha)     2a   (beta )       -0.0268829516
     9a   (alpha)     9a   (beta ) ---     2a   (alpha)     2a   (beta )       -0.0208499270
    10a   (alpha)     4a   (beta ) ---     1a   (alpha)     3a   (beta )       -0.0272958147
    10a   (alpha)     4a   (beta ) ---     2a   (alpha)     2a   (beta )        0.0337165388
    10a   (alpha)     4a   (beta ) ---     3a   (alpha)     1a   (beta )       -0.0462209527
    10a   (alpha)     4a   (beta ) ---     3a   (alpha)     3a   (beta )        0.0246735041
    10a   (alpha)     5a   (beta ) ---     1a   (alpha)     2a   (beta )       -0.0247677612
    10a   (alpha)     5a   (beta ) ---     2a   (alpha)     1a   (beta )       -0.0293779136
    10a   (alpha)     5a   (beta ) ---     2a   (alpha)     3a   (beta )        0.0232851687
    10a   (alpha)     5a   (beta ) ---     3a   (alpha)     2a   (beta )        0.0259943753
    10a   (alpha)    10a   (beta ) ---     2a   (alpha)     2a   (beta )       -0.0249582384
    11a   (alpha)    11a   (beta ) ---     1a   (alpha)     1a   (beta )       -0.0212585829
    12a   (alpha)    12a   (beta ) ---     1a   (alpha)     1a   (beta )       -0.0212585829
    13a   (alpha)     4a   (beta ) ---     3a   (alpha)     2a   (beta )        0.0250600043
    13a   (alpha)     5a   (beta ) ---     2a   (alpha)     2a   (beta )        0.0217021473
    16a   (alpha)     4a   (beta ) ---     3a   (alpha)     1a   (beta )       -0.0285857336
 Ground state specification:
 exp(T)|Ref>~(1+T)|Ref>
 ------- a(p)+/a(q) strings ----------

 singles norm

 doubles norm

 Reference string
  0.979867782051308      :(1a)+ (2a)+ (3a)+ (1b)+ (2b)+ (3b)+ |0>

 Singles strings

 Doubles strings
 -0.199647513628020      :(4a)+ (4b)+ (3b)  (3a)  (1a)+ (2a)+ (3a)+ (1b)+ (2b)+ 
 (3b)+ |0>
 -------------------------------------
 enrep_tce =    3.70212765957447     
  EHF(total)         =        -3.14544840
  Shift (HFtot-HFA)  =         0.00000000
 ALL OCCUPIED ORBITALS ARE ACTIVE IN DUCC --> NO SHIFT
 Number of active orbitals                     6
 Number of active alpha electrons                     3
 Number of active beta electrons                     3
  nos                      6
  nvs                    162
 noas                      3
 nobs                      3
 nvas                     81
 nvbs                     81
 nactv                      3
 DUCC MODEL =                      6
 NONHF =  T
 F-T1 correlation    =  -3.830368272734383E-011
 V-T1-T1 correlation =   1.021053607724868E-004
 V-T2 correlation    =  -0.162034603393011     
 Total correlation   =  -0.161932498070543     
 F-T1(Ext) correlation         =  -4.259476506329394E-011
 V-T1(Ext)-T1(Ext) correlation =   1.113694989479151E-004
 V-T2(Ext) correlation         =  -0.111011287743590     
 Total Ext correlation         =  -0.110899918287237     
1-BODY TIME =  693.259 SECONDS.
  HHHH TIME =  608.573 SECONDS.
  PPPP TIME =   13.143 SECONDS.
  HHHP TIME =   27.088 SECONDS.
  PPPH TIME =   23.707 SECONDS.
  HPHP TIME =   34.582 SECONDS.
  HHPP TIME =   16.950 SECONDS.
 ONE-BODY UNITARY CHECK
 TWO-BODY UNITARY CHECK
 TWO-BODY ANTISYMMETRY CHECK
 TRANSFORMED ~FOCK~ MATRIX
    1    1        -0.6299562886
    1    3        -0.0002637778
    1    5        -0.0018515024
    2    2        -0.5458551266
    2    4         0.0014591605
    2    6         0.0076523936
    3    1        -0.0002637778
    3    3        -0.4173901411
    3    5         0.0059479400
    4    2         0.0014591605
    4    4         0.0005310422
    4    6        -0.0033429660
    5    1        -0.0018515024
    5    3         0.0059479400
    5    5         0.1573149193
    6    2         0.0076523936
    6    4        -0.0033429660
    6    6         0.2884676678
 begin_one_electron_integrals
    1    1        -1.9451165600
    1    3        -0.1206575966
    1    5        -0.0629694559
    2    2        -1.7531478563
    2    4         0.1722727525
    2    6         0.0625271259
    3    1        -0.1206575966
    3    3        -1.6652300950
    3    5         0.1597111561
    4    2         0.1722727525
    4    4        -1.4795277174
    4    6         0.2416515476
    5    1        -0.0629694559
    5    3         0.1597111561
    5    5        -1.1990859415
    6    2         0.0625271259
    6    4         0.2416515476
    6    6        -0.9622524871
 end_one_electron_integrals
 begin_two_electron_integrals
    1    1    1    1        0.3529539944
    1    1    1    3        0.0627453713
    1    1    1    5        0.0064194480
    1    2    1    2        0.1077906598
    1    2    1    4       -0.0373656392
    1    2    1    6       -0.0020497606
    1    3    1    1        0.0627453713
    1    3    1    3        0.0809598452
    1    3    1    5       -0.0226658423
    1    4    1    2       -0.0373656392
    1    4    1    4        0.0625467720
    1    4    1    6       -0.0265535298
    1    5    1    1        0.0064194480
    1    5    1    3       -0.0226658423
    1    5    1    5        0.0371469414
    1    6    1    2       -0.0020497606
    1    6    1    4       -0.0265535298
    1    6    1    6        0.0295366660
    1    1    2    2        0.2804420410
    1    1    2    4       -0.0590882755
    1    1    2    6       -0.0067265638
    1    2    2    1        0.1078148172
    1    2    2    3       -0.0815395236
    1    2    2    5        0.0314162168
    1    3    2    2       -0.0222815013
    1    3    2    4       -0.0413581345
    1    3    2    6        0.0275188511
    1    4    2    1       -0.0373898041
    1    4    2    3       -0.0057036601
    1    4    2    5       -0.0350581546
    1    5    2    2        0.0279883543
    1    5    2    4       -0.0193283717
    1    5    2    6       -0.0180437617
    1    6    2    1       -0.0015637656
    1    6    2    3        0.0198610025
    1    6    2    5       -0.0070642434
    1    1    3    1        0.0627453713
    1    1    3    3        0.2949139879
    1    1    3    5       -0.0601223596
    1    2    3    2       -0.0828960416
    1    2    3    4       -0.0565126689
    1    2    3    6        0.0432271600
    1    3    3    1        0.0806909637
    1    3    3    3        0.0206719264
    1    3    3    5       -0.0351480135
    1    4    3    2       -0.0041374627
    1    4    3    4        0.0071482788
    1    4    3    6       -0.0269019282
    1    5    3    1       -0.0224514930
    1    5    3    3       -0.0025049999
    1    5    3    5       -0.0082457006
    1    6    3    2        0.0190749266
    1    6    3    4       -0.0089314618
    1    6    3    6        0.0027439637
    1    1    4    2       -0.0590882755
    1    1    4    4        0.2887074546
    1    1    4    6       -0.0725310496
    1    2    4    1       -0.0373898041
    1    2    4    3       -0.0590513846
    1    2    4    5       -0.0735656114
    1    3    4    2       -0.0418970571
    1    3    4    4        0.0172650300
    1    3    4    6       -0.0385053219
    1    4    4    1        0.0584805309
    1    4    4    3        0.0083963303
    1    4    4    5        0.0030301697
    1    5    4    2       -0.0174176744
    1    5    4    4        0.0031886058
    1    5    4    6        0.0051188905
    1    6    4    1       -0.0230416450
    1    6    4    3       -0.0090416031
    1    6    4    5        0.0090594881
    1    1    5    1        0.0064194480
    1    1    5    3       -0.0601223596
    1    1    5    5        0.2446063089
    1    2    5    2        0.0310222959
    1    2    5    4       -0.0732082858
    1    2    5    6       -0.0505389225
    1    3    5    1       -0.0224514930
    1    3    5    3       -0.0376915988
    1    3    5    5       -0.0075950036
    1    4    5    2       -0.0322737578
    1    4    5    4        0.0031693778
    1    4    5    6        0.0100801273
    1    5    5    1        0.0315641501
    1    5    5    3       -0.0085165573
    1    5    5    5        0.0130044844
    1    6    5    2       -0.0055942195
    1    6    5    4        0.0093073143
    1    6    5    6       -0.0011836269
    1    1    6    2       -0.0067265638
    1    1    6    4       -0.0725310496
    1    1    6    6        0.2259727586
    1    2    6    1       -0.0015637656
    1    2    6    3        0.0450547385
    1    2    6    5       -0.0502958059
    1    3    6    2        0.0284502234
    1    3    6    4       -0.0383103291
    1    3    6    6        0.0082105006
    1    4    6    1       -0.0230416450
    1    4    6    3       -0.0259616287
    1    4    6    5        0.0099179499
    1    5    6    2       -0.0150502196
    1    5    6    4        0.0053896791
    1    5    6    6        0.0002928481
    1    6    6    1        0.0239567651
    1    6    6    3        0.0038316651
    1    6    6    5       -0.0009201727
    2    1    1    2        0.1078148172
    2    1    1    4       -0.0373898041
    2    1    1    6       -0.0015637656
    2    2    1    1        0.2804420410
    2    2    1    3       -0.0222815013
    2    2    1    5        0.0279883543
    2    3    1    2       -0.0815395236
    2    3    1    4       -0.0057036601
    2    3    1    6        0.0198610025
    2    4    1    1       -0.0590882755
    2    4    1    3       -0.0413581345
    2    4    1    5       -0.0193283717
    2    5    1    2        0.0314162168
    2    5    1    4       -0.0350581546
    2    5    1    6       -0.0070642434
    2    6    1    1       -0.0067265638
    2    6    1    3        0.0275188511
    2    6    1    5       -0.0180437617
    2    1    2    1        0.1077906598
    2    1    2    3       -0.0828960416
    2    1    2    5        0.0310222959
    2    2    2    2        0.3035712744
    2    2    2    4       -0.0119846669
    2    2    2    6       -0.0359778528
    2    3    2    1       -0.0828960416
    2    3    2    3        0.0958465432
    2    3    2    5       -0.0091382003
    2    4    2    2       -0.0119846669
    2    4    2    4        0.0647002946
    2    4    2    6       -0.0123077156
    2    5    2    1        0.0310222959
    2    5    2    3       -0.0091382003
    2    5    2    5        0.0511613102
    2    6    2    2       -0.0359778528
    2    6    2    4       -0.0123077156
    2    6    2    6        0.0289714213
    2    1    3    2       -0.0815395236
    2    1    3    4       -0.0590513846
    2    1    3    6        0.0450547385
    2    2    3    1       -0.0222815013
    2    2    3    3        0.2734685982
    2    2    3    5       -0.0191076498
    2    3    3    2        0.0962850059
    2    3    3    4        0.0550502302
    2    3    3    6       -0.0263240254
    2    4    3    1       -0.0418970571
    2    4    3    3       -0.0114959740
    2    4    3    5        0.0500013709
    2    5    3    2       -0.0083022869
    2    5    3    4        0.0185835723
    2    5    3    6        0.0176369311
    2    6    3    1        0.0284502234
    2    6    3    3       -0.0166657714
    2    6    3    5       -0.0012340509
    2    1    4    1       -0.0373656392
    2    1    4    3       -0.0565126689
    2    1    4    5       -0.0732082858
    2    2    4    2       -0.0119846669
    2    2    4    4        0.2700290551
    2    2    4    6       -0.0315209875
    2    3    4    1       -0.0041374627
    2    3    4    3        0.0564518062
    2    3    4    5        0.0770789420
    2    4    4    2        0.0601148955
    2    4    4    4       -0.0155670145
    2    4    4    6        0.0235612961
    2    5    4    1       -0.0322737578
    2    5    4    3        0.0142856701
    2    5    4    5       -0.0054693062
    2    6    4    2       -0.0093313012
    2    6    4    4       -0.0119213656
    2    6    4    6       -0.0022085729
    2    1    5    2        0.0314162168
    2    1    5    4       -0.0735656114
    2    1    5    6       -0.0502958059
    2    2    5    1        0.0279883543
    2    2    5    3       -0.0191076498
    2    2    5    5        0.2517691535
    2    3    5    2       -0.0083022869
    2    3    5    4        0.0768111345
    2    3    5    6        0.0480308381
    2    4    5    1       -0.0174176744
    2    4    5    3        0.0435411345
    2    4    5    5       -0.0090960067
    2    5    5    2        0.0439379667
    2    5    5    4       -0.0065571863
    2    5    5    6       -0.0036851911
    2    6    5    1       -0.0150502196
    2    6    5    3        0.0003662225
    2    6    5    5       -0.0169350607
    2    1    6    1       -0.0020497606
    2    1    6    3        0.0432271600
    2    1    6    5       -0.0505389225
    2    2    6    2       -0.0359778528
    2    2    6    4       -0.0315209875
    2    2    6    6        0.2174482435
    2    3    6    1        0.0190749266
    2    3    6    3       -0.0283114144
    2    3    6    5        0.0474513975
    2    4    6    2       -0.0093313012
    2    4    6    4        0.0228106442
    2    4    6    6       -0.0056432571
    2    5    6    1       -0.0055942195
    2    5    6    3        0.0176521132
    2    5    6    5       -0.0046752634
    2    6    6    2        0.0234181036
    2    6    6    4       -0.0022958180
    2    6    6    6       -0.0060719285
    3    1    1    1        0.0627453713
    3    1    1    3        0.0806909637
    3    1    1    5       -0.0224514930
    3    2    1    2       -0.0828960416
    3    2    1    4       -0.0041374627
    3    2    1    6        0.0190749266
    3    3    1    1        0.2949139879
    3    3    1    3        0.0206719264
    3    3    1    5       -0.0025049999
    3    4    1    2       -0.0565126689
    3    4    1    4        0.0071482788
    3    4    1    6       -0.0089314618
    3    5    1    1       -0.0601223596
    3    5    1    3       -0.0351480135
    3    5    1    5       -0.0082457006
    3    6    1    2        0.0432271600
    3    6    1    4       -0.0269019282
    3    6    1    6        0.0027439637
    3    1    2    2       -0.0222815013
    3    1    2    4       -0.0418970571
    3    1    2    6        0.0284502234
    3    2    2    1       -0.0815395236
    3    2    2    3        0.0962850059
    3    2    2    5       -0.0083022869
    3    3    2    2        0.2734685982
    3    3    2    4       -0.0114959740
    3    3    2    6       -0.0166657714
    3    4    2    1       -0.0590513846
    3    4    2    3        0.0550502302
    3    4    2    5        0.0185835723
    3    5    2    2       -0.0191076498
    3    5    2    4        0.0500013709
    3    5    2    6       -0.0012340509
    3    6    2    1        0.0450547385
    3    6    2    3       -0.0263240254
    3    6    2    5        0.0176369311
    3    1    3    1        0.0809598452
    3    1    3    3        0.0206719264
    3    1    3    5       -0.0376915988
    3    2    3    2        0.0958465432
    3    2    3    4        0.0564518062
    3    2    3    6       -0.0283114144
    3    3    3    1        0.0206719264
    3    3    3    3        0.2880507514
    3    3    3    5       -0.0260569774
    3    4    3    2        0.0564518062
    3    4    3    4        0.0796061617
    3    4    3    6       -0.0342075258
    3    5    3    1       -0.0376915988
    3    5    3    3       -0.0260569774
    3    5    3    5        0.0459140757
    3    6    3    2       -0.0283114144
    3    6    3    4       -0.0342075258
    3    6    3    6        0.0370767943
    3    1    4    2       -0.0413581345
    3    1    4    4        0.0172650300
    3    1    4    6       -0.0383103291
    3    2    4    1       -0.0057036601
    3    2    4    3        0.0550502302
    3    2    4    5        0.0768111345
    3    3    4    2       -0.0114959740
    3    3    4    4        0.2741497828
    3    3    4    6       -0.0482214664
    3    4    4    1        0.0083963303
    3    4    4    3        0.0671183989
    3    4    4    5        0.0511746388
    3    5    4    2        0.0435411345
    3    5    4    4       -0.0169243685
    3    5    4    6        0.0257528199
    3    6    4    1       -0.0259616287
    3    6    4    3       -0.0271795473
    3    6    4    5       -0.0174711919
    3    1    5    1       -0.0226658423
    3    1    5    3       -0.0351480135
    3    1    5    5       -0.0075950036
    3    2    5    2       -0.0091382003
    3    2    5    4        0.0770789420
    3    2    5    6        0.0474513975
    3    3    5    1       -0.0025049999
    3    3    5    3       -0.0260569774
    3    3    5    5        0.2414922292
    3    4    5    2        0.0142856701
    3    4    5    4        0.0484292735
    3    4    5    6        0.0362656675
    3    5    5    1       -0.0085165573
    3    5    5    3        0.0438324056
    3    5    5    5       -0.0114427586
    3    6    5    2        0.0176521132
    3    6    5    4       -0.0172074317
    3    6    5    6       -0.0109046584
    3    1    6    2        0.0275188511
    3    1    6    4       -0.0385053219
    3    1    6    6        0.0082105006
    3    2    6    1        0.0198610025
    3    2    6    3       -0.0263240254
    3    2    6    5        0.0480308381
    3    3    6    2       -0.0166657714
    3    3    6    4       -0.0482214664
    3    3    6    6        0.2217319069
    3    4    6    1       -0.0090416031
    3    4    6    3       -0.0271795473
    3    4    6    5        0.0342596073
    3    5    6    2        0.0003662225
    3    5    6    4        0.0238134081
    3    5    6    6       -0.0084529048
    3    6    6    1        0.0038316651
    3    6    6    3        0.0322107944
    3    6    6    5       -0.0107626964
    4    1    1    2       -0.0373898041
    4    1    1    4        0.0584805309
    4    1    1    6       -0.0230416450
    4    2    1    1       -0.0590882755
    4    2    1    3       -0.0418970571
    4    2    1    5       -0.0174176744
    4    3    1    2       -0.0590513846
    4    3    1    4        0.0083963303
    4    3    1    6       -0.0090416031
    4    4    1    1        0.2887074546
    4    4    1    3        0.0172650300
    4    4    1    5        0.0031886058
    4    5    1    2       -0.0735656114
    4    5    1    4        0.0030301697
    4    5    1    6        0.0090594881
    4    6    1    1       -0.0725310496
    4    6    1    3       -0.0385053219
    4    6    1    5        0.0051188905
    4    1    2    1       -0.0373656392
    4    1    2    3       -0.0041374627
    4    1    2    5       -0.0322737578
    4    2    2    2       -0.0119846669
    4    2    2    4        0.0601148955
    4    2    2    6       -0.0093313012
    4    3    2    1       -0.0565126689
    4    3    2    3        0.0564518062
    4    3    2    5        0.0142856701
    4    4    2    2        0.2700290551
    4    4    2    4       -0.0155670145
    4    4    2    6       -0.0119213656
    4    5    2    1       -0.0732082858
    4    5    2    3        0.0770789420
    4    5    2    5       -0.0054693062
    4    6    2    2       -0.0315209875
    4    6    2    4        0.0235612961
    4    6    2    6       -0.0022085729
    4    1    3    2       -0.0057036601
    4    1    3    4        0.0083963303
    4    1    3    6       -0.0259616287
    4    2    3    1       -0.0413581345
    4    2    3    3       -0.0114959740
    4    2    3    5        0.0435411345
    4    3    3    2        0.0550502302
    4    3    3    4        0.0671183989
    4    3    3    6       -0.0271795473
    4    4    3    1        0.0172650300
    4    4    3    3        0.2741497828
    4    4    3    5       -0.0169243685
    4    5    3    2        0.0768111345
    4    5    3    4        0.0511746388
    4    5    3    6       -0.0174711919
    4    6    3    1       -0.0383103291
    4    6    3    3       -0.0482214664
    4    6    3    5        0.0257528199
    4    1    4    1        0.0625467720
    4    1    4    3        0.0071482788
    4    1    4    5        0.0031693778
    4    2    4    2        0.0647002946
    4    2    4    4       -0.0155670145
    4    2    4    6        0.0228106442
    4    3    4    1        0.0071482788
    4    3    4    3        0.0796061617
    4    3    4    5        0.0484292735
    4    4    4    2       -0.0155670145
    4    4    4    4        0.2653226868
    4    4    4    6       -0.0391270074
    4    5    4    1        0.0031693778
    4    5    4    3        0.0484292735
    4    5    4    5        0.0720101312
    4    6    4    2        0.0228106442
    4    6    4    4       -0.0391270074
    4    6    4    6        0.0377285389
    4    1    5    2       -0.0350581546
    4    1    5    4        0.0030301697
    4    1    5    6        0.0099179499
    4    2    5    1       -0.0193283717
    4    2    5    3        0.0500013709
    4    2    5    5       -0.0090960067
    4    3    5    2        0.0185835723
    4    3    5    4        0.0511746388
    4    3    5    6        0.0342596073
    4    4    5    1        0.0031886058
    4    4    5    3       -0.0169243685
    4    4    5    5        0.2329601237
    4    5    5    2       -0.0065571863
    4    5    5    4        0.0722823816
    4    5    5    6        0.0498709052
    4    6    5    1        0.0053896791
    4    6    5    3        0.0238134081
    4    6    5    5       -0.0121262450
    4    1    6    1       -0.0265535298
    4    1    6    3       -0.0269019282
    4    1    6    5        0.0100801273
    4    2    6    2       -0.0123077156
    4    2    6    4        0.0235612961
    4    2    6    6       -0.0056432571
    4    3    6    1       -0.0089314618
    4    3    6    3       -0.0342075258
    4    3    6    5        0.0362656675
    4    4    6    2       -0.0119213656
    4    4    6    4       -0.0391270074
    4    4    6    6        0.2143722176
    4    5    6    1        0.0093073143
    4    5    6    3       -0.0172074317
    4    5    6    5        0.0498787283
    4    6    6    2       -0.0022958180
    4    6    6    4        0.0380840095
    4    6    6    6       -0.0142119936
    5    1    1    1        0.0064194480
    5    1    1    3       -0.0224514930
    5    1    1    5        0.0315641501
    5    2    1    2        0.0310222959
    5    2    1    4       -0.0322737578
    5    2    1    6       -0.0055942195
    5    3    1    1       -0.0601223596
    5    3    1    3       -0.0376915988
    5    3    1    5       -0.0085165573
    5    4    1    2       -0.0732082858
    5    4    1    4        0.0031693778
    5    4    1    6        0.0093073143
    5    5    1    1        0.2446063089
    5    5    1    3       -0.0075950036
    5    5    1    5        0.0130044844
    5    6    1    2       -0.0505389225
    5    6    1    4        0.0100801273
    5    6    1    6       -0.0011836269
    5    1    2    2        0.0279883543
    5    1    2    4       -0.0174176744
    5    1    2    6       -0.0150502196
    5    2    2    1        0.0314162168
    5    2    2    3       -0.0083022869
    5    2    2    5        0.0439379667
    5    3    2    2       -0.0191076498
    5    3    2    4        0.0435411345
    5    3    2    6        0.0003662225
    5    4    2    1       -0.0735656114
    5    4    2    3        0.0768111345
    5    4    2    5       -0.0065571863
    5    5    2    2        0.2517691535
    5    5    2    4       -0.0090960067
    5    5    2    6       -0.0169350607
    5    6    2    1       -0.0502958059
    5    6    2    3        0.0480308381
    5    6    2    5       -0.0036851911
    5    1    3    1       -0.0226658423
    5    1    3    3       -0.0025049999
    5    1    3    5       -0.0085165573
    5    2    3    2       -0.0091382003
    5    2    3    4        0.0142856701
    5    2    3    6        0.0176521132
    5    3    3    1       -0.0351480135
    5    3    3    3       -0.0260569774
    5    3    3    5        0.0438324056
    5    4    3    2        0.0770789420
    5    4    3    4        0.0484292735
    5    4    3    6       -0.0172074317
    5    5    3    1       -0.0075950036
    5    5    3    3        0.2414922292
    5    5    3    5       -0.0114427586
    5    6    3    2        0.0474513975
    5    6    3    4        0.0362656675
    5    6    3    6       -0.0109046584
    5    1    4    2       -0.0193283717
    5    1    4    4        0.0031886058
    5    1    4    6        0.0053896791
    5    2    4    1       -0.0350581546
    5    2    4    3        0.0185835723
    5    2    4    5       -0.0065571863
    5    3    4    2        0.0500013709
    5    3    4    4       -0.0169243685
    5    3    4    6        0.0238134081
    5    4    4    1        0.0030301697
    5    4    4    3        0.0511746388
    5    4    4    5        0.0722823816
    5    5    4    2       -0.0090960067
    5    5    4    4        0.2329601237
    5    5    4    6       -0.0121262450
    5    6    4    1        0.0099179499
    5    6    4    3        0.0342596073
    5    6    4    5        0.0498709052
    5    1    5    1        0.0371469414
    5    1    5    3       -0.0082457006
    5    1    5    5        0.0130044844
    5    2    5    2        0.0511613102
    5    2    5    4       -0.0054693062
    5    2    5    6       -0.0046752634
    5    3    5    1       -0.0082457006
    5    3    5    3        0.0459140757
    5    3    5    5       -0.0114427586
    5    4    5    2       -0.0054693062
    5    4    5    4        0.0720101312
    5    4    5    6        0.0498787283
    5    5    5    1        0.0130044844
    5    5    5    3       -0.0114427586
    5    5    5    5        0.2269782826
    5    6    5    2       -0.0046752634
    5    6    5    4        0.0498787283
    5    6    5    6        0.0493189627
    5    1    6    2       -0.0180437617
    5    1    6    4        0.0051188905
    5    1    6    6        0.0002928481
    5    2    6    1       -0.0070642434
    5    2    6    3        0.0176369311
    5    2    6    5       -0.0036851911
    5    3    6    2       -0.0012340509
    5    3    6    4        0.0257528199
    5    3    6    6       -0.0084529048
    5    4    6    1        0.0090594881
    5    4    6    3       -0.0174711919
    5    4    6    5        0.0498709052
    5    5    6    2       -0.0169350607
    5    5    6    4       -0.0121262450
    5    5    6    6        0.2037524938
    5    6    6    1       -0.0009201727
    5    6    6    3       -0.0107626964
    5    6    6    5        0.0493221128
    6    1    1    2       -0.0015637656
    6    1    1    4       -0.0230416450
    6    1    1    6        0.0239567651
    6    2    1    1       -0.0067265638
    6    2    1    3        0.0284502234
    6    2    1    5       -0.0150502196
    6    3    1    2        0.0450547385
    6    3    1    4       -0.0259616287
    6    3    1    6        0.0038316651
    6    4    1    1       -0.0725310496
    6    4    1    3       -0.0383103291
    6    4    1    5        0.0053896791
    6    5    1    2       -0.0502958059
    6    5    1    4        0.0099179499
    6    5    1    6       -0.0009201727
    6    6    1    1        0.2259727586
    6    6    1    3        0.0082105006
    6    6    1    5        0.0002928481
    6    1    2    1       -0.0020497606
    6    1    2    3        0.0190749266
    6    1    2    5       -0.0055942195
    6    2    2    2       -0.0359778528
    6    2    2    4       -0.0093313012
    6    2    2    6        0.0234181036
    6    3    2    1        0.0432271600
    6    3    2    3       -0.0283114144
    6    3    2    5        0.0176521132
    6    4    2    2       -0.0315209875
    6    4    2    4        0.0228106442
    6    4    2    6       -0.0022958180
    6    5    2    1       -0.0505389225
    6    5    2    3        0.0474513975
    6    5    2    5       -0.0046752634
    6    6    2    2        0.2174482435
    6    6    2    4       -0.0056432571
    6    6    2    6       -0.0060719285
    6    1    3    2        0.0198610025
    6    1    3    4       -0.0090416031
    6    1    3    6        0.0038316651
    6    2    3    1        0.0275188511
    6    2    3    3       -0.0166657714
    6    2    3    5        0.0003662225
    6    3    3    2       -0.0263240254
    6    3    3    4       -0.0271795473
    6    3    3    6        0.0322107944
    6    4    3    1       -0.0385053219
    6    4    3    3       -0.0482214664
    6    4    3    5        0.0238134081
    6    5    3    2        0.0480308381
    6    5    3    4        0.0342596073
    6    5    3    6       -0.0107626964
    6    6    3    1        0.0082105006
    6    6    3    3        0.2217319069
    6    6    3    5       -0.0084529048
    6    1    4    1       -0.0265535298
    6    1    4    3       -0.0089314618
    6    1    4    5        0.0093073143
    6    2    4    2       -0.0123077156
    6    2    4    4       -0.0119213656
    6    2    4    6       -0.0022958180
    6    3    4    1       -0.0269019282
    6    3    4    3       -0.0342075258
    6    3    4    5       -0.0172074317
    6    4    4    2        0.0235612961
    6    4    4    4       -0.0391270074
    6    4    4    6        0.0380840095
    6    5    4    1        0.0100801273
    6    5    4    3        0.0362656675
    6    5    4    5        0.0498787283
    6    6    4    2       -0.0056432571
    6    6    4    4        0.2143722176
    6    6    4    6       -0.0142119936
    6    1    5    2       -0.0070642434
    6    1    5    4        0.0090594881
    6    1    5    6       -0.0009201727
    6    2    5    1       -0.0180437617
    6    2    5    3       -0.0012340509
    6    2    5    5       -0.0169350607
    6    3    5    2        0.0176369311
    6    3    5    4       -0.0174711919
    6    3    5    6       -0.0107626964
    6    4    5    1        0.0051188905
    6    4    5    3        0.0257528199
    6    4    5    5       -0.0121262450
    6    5    5    2       -0.0036851911
    6    5    5    4        0.0498709052
    6    5    5    6        0.0493221128
    6    6    5    1        0.0002928481
    6    6    5    3       -0.0084529048
    6    6    5    5        0.2037524938
    6    1    6    1        0.0295366660
    6    1    6    3        0.0027439637
    6    1    6    5       -0.0011836269
    6    2    6    2        0.0289714213
    6    2    6    4       -0.0022085729
    6    2    6    6       -0.0060719285
    6    3    6    1        0.0027439637
    6    3    6    3        0.0370767943
    6    3    6    5       -0.0109046584
    6    4    6    2       -0.0022085729
    6    4    6    4        0.0377285389
    6    4    6    6       -0.0142119936
    6    5    6    1       -0.0011836269
    6    5    6    3       -0.0109046584
    6    5    6    5        0.0493189627
    6    6    6    2       -0.0060719285
    6    6    6    4       -0.0142119936
    6    6    6    6        0.1980471568
 end_two_electron_integrals

 Task  times  cpu:     1583.3s     wall:     1583.3s
 
 
                                NWChem Input Module
                                -------------------
 
 
 Summary of allocated global arrays
-----------------------------------
  No active global arrays


MA_summarize_allocated_blocks: starting scan ...
MA_summarize_allocated_blocks: scan completed: 0 heap blocks, 0 stack blocks
MA usage statistics:

	allocation statistics:
					      heap	     stack
					      ----	     -----
	current number of blocks	         0	         0
	maximum number of blocks	        16	        42
	current total bytes		         0	         0
	maximum total bytes		     80104	20728605000
	maximum total K-bytes		        81	  20728605
	maximum total M-bytes		         1	     20729
 
 
                                     CITATION
                                     --------
                Please cite the following reference when publishing
                           results obtained with NWChem:
 
          E. Apra, E. J. Bylaska, W. A. de Jong, N. Govind, K. Kowalski,
       T. P. Straatsma, M. Valiev, H. J. J. van Dam, Y. Alexeev, J. Anchell,
       V. Anisimov, F. W. Aquino, R. Atta-Fynn, J. Autschbach, N. P. Bauman,
     J. C. Becca, D. E. Bernholdt, K. Bhaskaran-Nair, S. Bogatko, P. Borowski,
         J. Boschen, J. Brabec, A. Bruner, E. Cauet, Y. Chen, G. N. Chuev,
      C. J. Cramer, J. Daily, M. J. O. Deegan, T. H. Dunning Jr., M. Dupuis,
   K. G. Dyall, G. I. Fann, S. A. Fischer, A. Fonari, H. Fruchtl, L. Gagliardi,
      J. Garza, N. Gawande, S. Ghosh, K. Glaesemann, A. W. Gotz, J. Hammond,
       V. Helms, E. D. Hermes, K. Hirao, S. Hirata, M. Jacquelin, L. Jensen,
   B. G. Johnson, H. Jonsson, R. A. Kendall, M. Klemm, R. Kobayashi, V. Konkov,
      S. Krishnamoorthy, M. Krishnan, Z. Lin, R. D. Lins, R. J. Littlefield,
      A. J. Logsdail, K. Lopata, W. Ma, A. V. Marenich, J. Martin del Campo,
   D. Mejia-Rodriguez, J. E. Moore, J. M. Mullin, T. Nakajima, D. R. Nascimento,
    J. A. Nichols, P. J. Nichols, J. Nieplocha, A. Otero-de-la-Roza, B. Palmer,
    A. Panyala, T. Pirojsirikul, B. Peng, R. Peverati, J. Pittner, L. Pollack,
   R. M. Richard, P. Sadayappan, G. C. Schatz, W. A. Shelton, D. W. Silverstein,
   D. M. A. Smith, T. A. Soares, D. Song, M. Swart, H. L. Taylor, G. S. Thomas,
            V. Tipparaju, D. G. Truhlar, K. Tsemekhman, T. Van Voorhis,
      A. Vazquez-Mayagoitia, P. Verma, O. Villa, A. Vishnu, K. D. Vogiatzis,
        D. Wang, J. H. Weare, M. J. Williamson, T. L. Windus, K. Wolinski,
        A. T. Wong, Q. Wu, C. Yang, Q. Yu, M. Zacharias, Z. Zhang, Y. Zhao,
                                and R. J. Harrison
                        "NWChem: Past, present, and future
                         J. Chem. Phys. 152, 184102 (2020)
                               doi:10.1063/5.0004997
 
                                      AUTHORS
                                      -------
  E. Apra, E. J. Bylaska, N. Govind, K. Kowalski, M. Valiev, D. Mejia-Rodriguez,
       A. Kunitsa, N. P. Bauman, A. Panyala, W. A. de Jong, T. P. Straatsma,
   H. J. J. van Dam, D. Wang, T. L. Windus, J. Hammond, J. Autschbach, A. Woods,
    K. Bhaskaran-Nair, J. Brabec, K. Lopata, S. A. Fischer, S. Krishnamoorthy,
     M. Jacquelin, W. Ma, M. Klemm, O. Villa, Y. Chen, V. Anisimov, F. Aquino,
     S. Hirata, M. T. Hackler, E. Hermes, L. Jensen, J. E. Moore, J. C. Becca,
      V. Konjkov, T. Risthaus, M. Malagoli, A. Marenich, A. Otero-de-la-Roza,
        J. Mullin, P. Nichols, R. Peverati, J. Pittner, Y. Zhao, P.-D. Fan,
        A. Fonari, M. J. Williamson, R. J. Harrison, J. R. Rehr, M. Dupuis,
     D. Silverstein, D. M. A. Smith, J. Nieplocha, V. Tipparaju, M. Krishnan,
     B. E. Van Kuiken, A. Vazquez-Mayagoitia, M. Swart, Q. Wu, T. Van Voorhis,
     A. A. Auer, M. Nooijen, L. D. Crosby, E. Brown, G. Cisneros, G. I. Fann,
   H. Fruchtl, J. Garza, K. Hirao, R. A. Kendall, J. A. Nichols, K. Tsemekhman,
    K. Wolinski, J. Anchell, D. E. Bernholdt, P. Borowski, T. Clark, D. Clerc,
   H. Dachsel, M. J. O. Deegan, K. Dyall, D. Elwood, E. Glendening, M. Gutowski,
   A. C. Hess, J. Jaffe, B. G. Johnson, J. Ju, R. Kobayashi, R. Kutteh, Z. Lin,
   R. Littlefield, X. Long, B. Meng, T. Nakajima, S. Niu, L. Pollack, M. Rosing,
   K. Glaesemann, G. Sandrone, M. Stave, H. Taylor, G. Thomas, J. H. van Lenthe,
                               A. T. Wong, Z. Zhang.

 Total times  cpu:     1585.0s     wall:     1585.0s
