 argument  1 = input.nw
  NWChem w/ OpenMP: maximum threads =    1
 


============================== echo of input deck ==============================

echo
start H6
title "H6"

memory total 80 gb

geometry units bohr
symmetry c1
H 0 0 0
H 0 0 2.81
H 0 0 5.62
H 0 0 8.43
H 0 0 11.24
H 0 0 14.05
end

basis spherical
  * library cc-pVTZ
end

scf
thresh 1e-8
end

tce
  2eorb
  2emet 13
  ccsd
  thresh 1e-8
  maxiter 300
end

# set tce:print_integrals T
# set tce:qorb 6
# set tce:qela 3
# set tce:qelb 3

set tce:qducc T
set tce:nactv 3
set tce:nonhf T
set tce:ducc_model 6

set tce:printtol 0.02

task tce
================================================================================


                                         
                                         
 
 
             Northwest Computational Chemistry Package (NWChem) 7.2.3
             --------------------------------------------------------
 
 
                    Environmental Molecular Sciences Laboratory
                       Pacific Northwest National Laboratory
                                Richland, WA 99352
 
                              Copyright (c) 1994-2022
                       Pacific Northwest National Laboratory
                            Battelle Memorial Institute
 
             NWChem is an open-source computational chemistry package
                        distributed under the terms of the
                      Educational Community License (ECL) 2.0
             A copy of the license is included with this distribution
                              in the LICENSE.TXT file
 
                                  ACKNOWLEDGMENT
                                  --------------

            This software and its documentation were developed at the
            EMSL at Pacific Northwest National Laboratory, a multiprogram
            national laboratory, operated for the U.S. Department of Energy
            by Battelle under Contract Number DE-AC05-76RL01830. Support
            for this work was provided by the Department of Energy Office
            of Biological and Environmental Research, Office of Basic
            Energy Sciences, and the Office of Advanced Scientific Computing.


           Job information
           ---------------

    hostname        = koothan
    program         = /hpc/home/baum612/code/nwchem/bin/LINUX64/nwchem
    date            = Fri Nov 15 19:43:19 2024

    compiled        = Wed_Nov_13_16:23:19_2024
    source          = /hpc/home/baum612/code/nwchem
    nwchem branch   = 7.2.3
    nwchem revision = v7.2.0-beta1-1280-g0779ca2e41
    ga revision     = 5.8.0
    use scalapack   = T
    input           = input.nw
    prefix          = H6.
    data base       = ./H6.db
    status          = startup
    nproc           =        1
    time left       =     -1s



           Memory information
           ------------------

    heap     =   2684354560 doubles =    20480.0 Mbytes
    stack    =   2684354557 doubles =    20480.0 Mbytes
    global   =   5368709120 doubles =    40960.0 Mbytes (distinct from heap & stack)
    total    =  10737418237 doubles =    81920.0 Mbytes
    verify   = yes
    hardfail = no 


           Directory information
           ---------------------
 
  0 permanent = .
  0 scratch   = .
 
 
 
 
                                NWChem Input Module
                                -------------------
 
 
                                        H6
                                        --
 Turning off AUTOSYM since
 SYMMETRY directive was detected!
 

          ------
          auto-z
          ------
     1 autoz failed with cvr_scaling = 1.2 changing to 1.3
     2 autoz failed with cvr_scaling = 1.3 changing to 1.4
     3 autoz failed with cvr_scaling = 1.4 changing to 1.5
     4 autoz failed with cvr_scaling = 1.5 changing to 1.6
     5 autoz failed with cvr_scaling = 1.6 changing to 1.7

 AUTOZ failed to generate good internal coordinates.
 Cartesian coordinates will be used in optimizations.

 
 
                             Geometry "geometry" -> ""
                             -------------------------
 
 Output coordinates in a.u. (scale by  1.000000000 to convert to a.u.)
 
  No.       Tag          Charge          X              Y              Z
 ---- ---------------- ---------- -------------- -------------- --------------
    1 H                    1.0000     0.00000000     0.00000000    -7.02500000
    2 H                    1.0000     0.00000000     0.00000000    -4.21500000
    3 H                    1.0000     0.00000000     0.00000000    -1.40500000
    4 H                    1.0000     0.00000000     0.00000000     1.40500000
    5 H                    1.0000     0.00000000     0.00000000     4.21500000
    6 H                    1.0000     0.00000000     0.00000000     7.02500000
 
      Atomic Mass 
      ----------- 
 
      H                  1.007825
 

 Effective nuclear repulsion energy (a.u.)       3.0960854093

            Nuclear Dipole moment (a.u.) 
            ----------------------------
        X                 Y               Z
 ---------------- ---------------- ----------------
     0.0000000000     0.0000000000    -0.0000000000
 
 
            XYZ format geometry
            -------------------
     6
 geometry
 H                     0.00000000     0.00000000    -3.71747017
 H                     0.00000000     0.00000000    -2.23048210
 H                     0.00000000     0.00000000    -0.74349403
 H                     0.00000000     0.00000000     0.74349403
 H                     0.00000000     0.00000000     2.23048210
 H                     0.00000000     0.00000000     3.71747017
 


 Summary of "ao basis" -> "" (spherical)
 ------------------------------------------------------------------------------
       Tag                 Description            Shells   Functions and Types
 ---------------- ------------------------------  ------  ---------------------
 *                          cc-pVTZ                   on all atoms 


                      Basis "ao basis" -> "ao basis" (spherical)
                      -----
  H (Hydrogen)
  ------------
            Exponent  Coefficients 
       -------------- ---------------------------------------------------------
  1 S  3.38700000E+01  0.006068
  1 S  5.09500000E+00  0.045308
  1 S  1.15900000E+00  0.202822
 
  2 S  3.25800000E-01  1.000000
 
  3 S  1.02700000E-01  1.000000
 
  4 P  1.40700000E+00  1.000000
 
  5 P  3.88000000E-01  1.000000
 
  6 D  1.05700000E+00  1.000000
 


 Summary of "ao basis" -> "ao basis" (spherical)
 ------------------------------------------------------------------------------
       Tag                 Description            Shells   Functions and Types
 ---------------- ------------------------------  ------  ---------------------
 H                          cc-pVTZ                  6       14   3s2p1d


                                 NWChem SCF Module
                                 -----------------
 
 
                                        H6
 
 

  ao basis        = "ao basis"
  functions       =    84
  atoms           =     6
  closed shells   =     3
  open shells     =     0
  charge          =   0.00
  wavefunction    = RHF 
  input vectors   = atomic
  output vectors  = ./H6.movecs
  use symmetry    = F
  symmetry adapt  = F


 Summary of "ao basis" -> "ao basis" (spherical)
 ------------------------------------------------------------------------------
       Tag                 Description            Shells   Functions and Types
 ---------------- ------------------------------  ------  ---------------------
 H                          cc-pVTZ                  6       14   3s2p1d



 Forming initial guess at       0.4s

 
      Superposition of Atomic Density Guess
      -------------------------------------
 
 Sum of atomic energies:          -2.99885518
 
      Non-variational initial energy
      ------------------------------

 Total energy =      -2.293454
 1-e energy   =      -9.142169
 2-e energy   =       3.752629
 HOMO         =      -0.265378
 LUMO         =      -0.125866
 

 Starting SCF solution at       0.4s



 ----------------------------------------------
         Quadratically convergent ROHF

 Convergence threshold     :          1.000E-08
 Maximum no. of iterations :           30
 Final Fock-matrix accuracy:          1.000E-10
 ----------------------------------------------


              iter       energy          gnorm     gmax       time
             ----- ------------------- --------- --------- --------
                 1       -3.0097157952  1.75D-01  9.93D-02      0.6
                 2       -3.0204962060  1.76D-02  1.09D-02      0.8
                 3       -3.0205565113  1.19D-04  4.19D-05      1.1
                 4       -3.0205565133  1.40D-08  5.94D-09      1.7
                 5       -3.0205565133  2.96D-10  1.80D-10      1.9


       Final RHF  results 
       ------------------ 

         Total SCF energy =     -3.020556513251
      One-electron energy =     -9.485874496886
      Two-electron energy =      3.369232574382
 Nuclear repulsion energy =      3.096085409253

        Time for solution =      1.5s


             Final eigenvalues
             -----------------

              1      
    1   -0.5313
    2   -0.4686
    3   -0.3738
    4   -0.0599
    5    0.0719
    6    0.2098
    7    0.3529
    8    0.3822
    9    0.4098
   10    0.4627
   11    0.5466
   12    0.5876
   13    0.5876
 
                       ROHF Final Molecular Orbital Analysis
                       -------------------------------------
 
 Vector    1  Occ=2.000000D+00  E=-5.313426D-01
              MO Center=  4.1D-18, -1.6D-17,  1.6D-11, r^2= 4.3D+00
   Bfn.  Coefficient  Atom+Function         Bfn.  Coefficient  Atom+Function  
  ----- ------------  ---------------      ----- ------------  ---------------
    30      0.202878  3 H  s                 44      0.202878  4 H  s          
    16      0.153643  2 H  s                 58      0.153643  5 H  s          
 
 Vector    2  Occ=2.000000D+00  E=-4.686041D-01
              MO Center=  2.6D-17,  1.1D-17, -3.8D-12, r^2= 9.1D+00
   Bfn.  Coefficient  Atom+Function         Bfn.  Coefficient  Atom+Function  
  ----- ------------  ---------------      ----- ------------  ---------------
    16      0.197808  2 H  s                 58     -0.197808  5 H  s          
    17      0.195767  2 H  s                 59     -0.195767  5 H  s          
     2      0.175672  1 H  s                 72     -0.175672  6 H  s          
 
 Vector    3  Occ=2.000000D+00  E=-3.737580D-01
              MO Center= -5.1D-18,  1.3D-17, -1.8D-11, r^2= 8.1D+00
   Bfn.  Coefficient  Atom+Function         Bfn.  Coefficient  Atom+Function  
  ----- ------------  ---------------      ----- ------------  ---------------
    31      0.218912  3 H  s                 45      0.218912  4 H  s          
     3     -0.191341  1 H  s                 73     -0.191341  6 H  s          
     2     -0.180513  1 H  s                 30      0.180879  3 H  s          
    44      0.180879  4 H  s                 72     -0.180513  6 H  s          
    17     -0.163172  2 H  s                 59     -0.163172  5 H  s          
 
 Vector    4  Occ=0.000000D+00  E=-5.988625D-02
              MO Center=  1.6D-19,  1.1D-18,  1.5D-11, r^2= 9.0D+00
   Bfn.  Coefficient  Atom+Function         Bfn.  Coefficient  Atom+Function  
  ----- ------------  ---------------      ----- ------------  ---------------
     3      0.420503  1 H  s                 73     -0.420503  6 H  s          
    31     -0.310555  3 H  s                 45      0.310555  4 H  s          
    17     -0.227687  2 H  s                 59      0.227687  5 H  s          
    30     -0.172207  3 H  s                 44      0.172207  4 H  s          
     2      0.155020  1 H  s                 72     -0.155020  6 H  s          
 
 Vector    5  Occ=0.000000D+00  E= 7.189882D-02
              MO Center=  7.9D-16,  4.9D-17, -6.7D-11, r^2= 1.2D+01
   Bfn.  Coefficient  Atom+Function         Bfn.  Coefficient  Atom+Function  
  ----- ------------  ---------------      ----- ------------  ---------------
    17      0.757210  2 H  s                 59      0.757210  5 H  s          
     3     -0.688219  1 H  s                 73     -0.688219  6 H  s          
    31     -0.300660  3 H  s                 45     -0.300660  4 H  s          
    16      0.193810  2 H  s                 58      0.193810  5 H  s          
 
 Vector    6  Occ=0.000000D+00  E= 2.098452D-01
              MO Center= -2.2D-18,  4.4D-18,  1.5D-11, r^2= 9.5D+00
   Bfn.  Coefficient  Atom+Function         Bfn.  Coefficient  Atom+Function  
  ----- ------------  ---------------      ----- ------------  ---------------
    31      1.518290  3 H  s                 45     -1.518290  4 H  s          
    17     -1.237818  2 H  s                 59      1.237818  5 H  s          
     3      0.871409  1 H  s                 73     -0.871409  6 H  s          
    30      0.189707  3 H  s                 44     -0.189707  4 H  s          
 
 Vector    7  Occ=0.000000D+00  E= 3.529355D-01
              MO Center=  2.5D-16, -4.1D-16, -1.3D-10, r^2= 8.3D+00
   Bfn.  Coefficient  Atom+Function         Bfn.  Coefficient  Atom+Function  
  ----- ------------  ---------------      ----- ------------  ---------------
    30      0.649320  3 H  s                 44      0.649320  4 H  s          
    31     -0.559963  3 H  s                 45     -0.559963  4 H  s          
     2      0.516434  1 H  s                 72      0.516434  6 H  s          
    16      0.492779  2 H  s                 58      0.492779  5 H  s          
     3     -0.476776  1 H  s                 73     -0.476776  6 H  s          
 
 Vector    8  Occ=0.000000D+00  E= 3.821677D-01
              MO Center= -8.7D-17,  3.0D-16,  1.3D-11, r^2= 1.3D+01
   Bfn.  Coefficient  Atom+Function         Bfn.  Coefficient  Atom+Function  
  ----- ------------  ---------------      ----- ------------  ---------------
     2      0.807622  1 H  s                 72     -0.807622  6 H  s          
     3     -0.784146  1 H  s                 73      0.784146  6 H  s          
    17     -0.390572  2 H  s                 59      0.390572  5 H  s          
    16      0.379537  2 H  s                 30      0.378064  3 H  s          
    44     -0.378064  4 H  s                 58     -0.379537  5 H  s          
 
 Vector    9  Occ=0.000000D+00  E= 4.098452D-01
              MO Center=  1.6D-16, -1.3D-16,  1.8D-11, r^2= 1.4D+01
   Bfn.  Coefficient  Atom+Function         Bfn.  Coefficient  Atom+Function  
  ----- ------------  ---------------      ----- ------------  ---------------
     3      1.102129  1 H  s                 73      1.102129  6 H  s          
     2     -0.799935  1 H  s                 72     -0.799935  6 H  s          
    30      0.491722  3 H  s                 44      0.491722  4 H  s          
    31     -0.481881  3 H  s                 45     -0.481881  4 H  s          
    17     -0.394239  2 H  s                 59     -0.394239  5 H  s          
 
 Vector   10  Occ=0.000000D+00  E= 4.626827D-01
              MO Center= -7.2D-17,  4.3D-16,  7.5D-11, r^2= 1.1D+01
   Bfn.  Coefficient  Atom+Function         Bfn.  Coefficient  Atom+Function  
  ----- ------------  ---------------      ----- ------------  ---------------
    17      1.560509  2 H  s                 59     -1.560509  5 H  s          
     3     -1.102550  1 H  s                 73      1.102550  6 H  s          
    16     -0.875336  2 H  s                 58      0.875336  5 H  s          
     2      0.520369  1 H  s                 72     -0.520369  6 H  s          
    30     -0.193864  3 H  s                 44      0.193864  4 H  s          
 
 Vector   11  Occ=0.000000D+00  E= 5.466015D-01
              MO Center= -1.8D-16, -9.6D-17, -1.6D-10, r^2= 8.2D+00
   Bfn.  Coefficient  Atom+Function         Bfn.  Coefficient  Atom+Function  
  ----- ------------  ---------------      ----- ------------  ---------------
    17      2.085986  2 H  s                 59      2.085986  5 H  s          
    31     -1.211007  3 H  s                 45     -1.211007  4 H  s          
    16     -0.919680  2 H  s                 58     -0.919680  5 H  s          
     3     -0.809415  1 H  s                 73     -0.809415  6 H  s          
    30      0.569082  3 H  s                 44      0.569082  4 H  s          
 
 Vector   12  Occ=0.000000D+00  E= 5.875817D-01
              MO Center= -3.2D-16,  6.3D-16,  2.0D-11, r^2= 4.2D+00
   Bfn.  Coefficient  Atom+Function         Bfn.  Coefficient  Atom+Function  
  ----- ------------  ---------------      ----- ------------  ---------------
    36      0.421468  3 H  py                50      0.421468  4 H  py         
    22      0.332194  2 H  py                64      0.332194  5 H  py         
    35     -0.202299  3 H  px                49     -0.202299  4 H  px         
     8      0.179929  1 H  py                78      0.179929  6 H  py         
    21     -0.159448  2 H  px                63     -0.159448  5 H  px         
 
 Vector   13  Occ=0.000000D+00  E= 5.875817D-01
              MO Center= -4.3D-17,  8.1D-17,  2.1D-11, r^2= 4.2D+00
   Bfn.  Coefficient  Atom+Function         Bfn.  Coefficient  Atom+Function  
  ----- ------------  ---------------      ----- ------------  ---------------
    35      0.421468  3 H  px                49      0.421468  4 H  px         
    21      0.332194  2 H  px                63      0.332194  5 H  px         
    36      0.202299  3 H  py                50      0.202299  4 H  py         
     7      0.179929  1 H  px                77      0.179929  6 H  px         
    22      0.159448  2 H  py                64      0.159448  5 H  py         
 

 center of mass
 --------------
 x =   0.00000000 y =   0.00000000 z =  -0.00000000

 moments of inertia (a.u.)
 ------------------
         139.263022193750           0.000000000000           0.000000000000
           0.000000000000         139.263022193750           0.000000000000
           0.000000000000           0.000000000000           0.000000000000
 
  Mulliken analysis of the total density
  --------------------------------------

    Atom       Charge   Shell Charges
 -----------   ------   -------------------------------------------------------
    1 H    1     0.97   0.14  0.42  0.40  0.00  0.01  0.00
    2 H    1     1.04   0.15  0.44  0.43  0.00  0.02  0.00
    3 H    1     0.99   0.15  0.45  0.38  0.00  0.02  0.00
    4 H    1     0.99   0.15  0.45  0.38  0.00  0.02  0.00
    5 H    1     1.04   0.15  0.44  0.43  0.00  0.02  0.00
    6 H    1     0.97   0.14  0.42  0.40  0.00  0.01  0.00
 
       Multipole analysis of the density wrt the origin
       ------------------------------------------------
 
     L   x y z        total         open         nuclear
     -   - - -        -----         ----         -------
     0   0 0 0     -0.000000      0.000000      6.000000
 
     1   1 0 0     -0.000000      0.000000      0.000000
     1   0 1 0     -0.000000      0.000000      0.000000
     1   0 0 1      0.000000      0.000000     -0.000000
 
     2   2 0 0     -6.663729      0.000000      0.000000
     2   1 1 0     -0.000000      0.000000      0.000000
     2   1 0 1      0.000000      0.000000      0.000000
     2   0 2 0     -6.663729      0.000000      0.000000
     2   0 1 1      0.000000      0.000000      0.000000
     2   0 0 2     -1.874709      0.000000    138.181750
 
                   NWChem Extensible Many-Electron Theory Module
                   ---------------------------------------------
 
              ======================================================
                   This portion of the program was automatically
                  generated by a Tensor Contraction Engine (TCE).
                  The development of this portion of the program
                 and TCE was supported by US Department of Energy,
                Office of Science, Office of Basic Energy Science.
                      TCE is a product of Battelle and PNNL.
              Please cite: S.Hirata, J.Phys.Chem.A 107, 9887 (2003).
              ======================================================
 
                                        H6
 
 
            General Information
            -------------------
      Number of processors :     1
         Wavefunction type : Restricted Hartree-Fock
          No. of electrons :     6
           Alpha electrons :     3
            Beta electrons :     3
           No. of orbitals :   168
            Alpha orbitals :    84
             Beta orbitals :    84
        Alpha frozen cores :     0
         Beta frozen cores :     0
     Alpha frozen virtuals :     0
      Beta frozen virtuals :     0
         Spin multiplicity : singlet 
    Number of AO functions :    84
       Number of AO shells :    36
        Use of symmetry is : off
      Symmetry adaption is : off
         Schwarz screening : 0.10D-09
 
          Correlation Information
          -----------------------
          Calculation type : Coupled-cluster singles & doubles                           
   Perturbative correction : none                                                        
            Max iterations :      300
        Residual threshold : 0.10D-07
     T(0) DIIS level shift : 0.00D+00
     L(0) DIIS level shift : 0.00D+00
     T(1) DIIS level shift : 0.00D+00
     L(1) DIIS level shift : 0.00D+00
     T(R) DIIS level shift : 0.00D+00
     T(I) DIIS level shift : 0.00D+00
   CC-T/L Amplitude update :  5-th order DIIS
                I/O scheme : Global Array Library
        L-threshold :  0.10D-07
        EOM-threshold :  0.10D-07
 no EOMCCSD initial starts read in
 TCE RESTART OPTIONS
 READ_INT:   F
 WRITE_INT:  F
 READ_TA:    F
 WRITE_TA:   F
 READ_XA:    F
 WRITE_XA:   F
 READ_IN3:   F
 WRITE_IN3:  F
 SLICE:      F
 D4D5:       F
 quantumc:   F
 qrotation:  F
 pwtce:      F
 qducc:      T
 nacto:                          0
 nrotv:                          0
 nrot:                           0
 
            Memory Information
            ------------------
          Available GA space size is    5368702064 doubles
          Available MA space size is    5368706460 doubles
 
 Maximum block size        32 doubles

 tile_dim =     27

 Block   Spin    Irrep     Size     Offset   Alpha
 -------------------------------------------------
   1    alpha     a      3 doubles       0       1
   2    beta      a      3 doubles       3       1
   3    alpha     a     27 doubles       6       3
   4    alpha     a     27 doubles      33       4
   5    alpha     a     27 doubles      60       5
   6    beta      a     27 doubles      87       3
   7    beta      a     27 doubles     114       4
   8    beta      a     27 doubles     141       5

 Global array virtual files algorithm will be used

 Parallel file system coherency ......... OK
 
 Fock matrix recomputed
 1-e file size   =             7056
 1-e file name   = ./H6.f1
 Cpu & wall time / sec            0.1            0.1
 4-electron integrals stored in orbital form
 
 v2    file size   =         12304143
 4-index algorithm nr.  13 is used
 imaxsize =       30
 imaxsize ichop =        0
 Cpu & wall time / sec            4.3            4.3
 T1-number-of-tasks                     3
 
 t1 file size   =              243
 t1 file name   = ./H6.t1
 t1 file handle =       -998
 T2-number-of-boxes                    15
 
 t2 file size   =            98415
 t2 file name   = ./H6.t2
 t2 file handle =       -996
CCSD iterations
 ---------------------------------------------------------
 Iter          Residuum       Correlation     Cpu    Wall 
 ---------------------------------------------------------
NEW TASK SCHEDULING
CCSD_T1_NTS --- OK
CCSD_T2_NTS --- OK
    1   0.1513524289755  -0.1290496791116     0.5     0.5
    2   0.0711705017596  -0.1572184641365     0.5     0.5
    3   0.0408988813842  -0.1700570317772     0.5     0.5
    4   0.0253753379475  -0.1766471454243     0.5     0.5
    5   0.0167343443733  -0.1805082288923     0.5     0.5
 MICROCYCLE DIIS UPDATE:                     5                     5
    6   0.0071406726719  -0.1864649597409     0.5     0.5
    7   0.0052724279945  -0.1864774746191     0.5     0.5
    8   0.0040160593215  -0.1865228590450     0.5     0.5
    9   0.0032281815098  -0.1865881004074     0.5     0.5
   10   0.0025377748927  -0.1866743662375     0.5     0.5
 MICROCYCLE DIIS UPDATE:                    10                     5
   11   0.0006146382854  -0.1870203065749     0.5     0.5
   12   0.0003077405348  -0.1870986663012     0.5     0.5
   13   0.0001967243492  -0.1871434785397     0.5     0.5
   14   0.0001299329126  -0.1871651688332     0.5     0.5
   15   0.0000914262257  -0.1871792689850     0.5     0.5
 MICROCYCLE DIIS UPDATE:                    15                     5
   16   0.0000387662356  -0.1872044637654     0.5     0.5
   17   0.0000281941946  -0.1872037064078     0.5     0.5
   18   0.0000207431567  -0.1872033100725     0.5     0.5
   19   0.0000166533165  -0.1872031822641     0.5     0.5
   20   0.0000128474754  -0.1872033766473     0.5     0.5
 MICROCYCLE DIIS UPDATE:                    20                     5
   21   0.0000039018117  -0.1872043900272     0.5     0.5
   22   0.0000019613334  -0.1872048933155     0.5     0.5
   23   0.0000012110370  -0.1872051715971     0.5     0.5
   24   0.0000008204412  -0.1872053156357     0.5     0.5
   25   0.0000005872744  -0.1872054130244     0.5     0.5
 MICROCYCLE DIIS UPDATE:                    25                     5
   26   0.0000002354539  -0.1872056170878     0.5     0.5
   27   0.0000001585010  -0.1872056116640     0.5     0.5
   28   0.0000001174849  -0.1872056091771     0.5     0.5
   29   0.0000000944628  -0.1872056084954     0.5     0.5
   30   0.0000000739558  -0.1872056095866     0.5     0.5
 MICROCYCLE DIIS UPDATE:                    30                     5
   31   0.0000000251893  -0.1872056147250     0.5     0.5
   32   0.0000000122593  -0.1872056182628     0.5     0.5
   33   0.0000000077761  -0.1872056200489     0.5     0.5
 -----------------------------------------------------------------
 Iterations converged
 CCSD correlation energy / hartree =        -0.187205620048915
 CCSD total energy / hartree       =        -3.207762133299512

 Singles contributions
     7a   (alpha) ---     1a   (alpha)        0.0237780320
     8a   (alpha) ---     2a   (alpha)        0.0303088508
     9a   (alpha) ---     3a   (alpha)        0.0322228527
    11a   (alpha) ---     3a   (alpha)        0.0229185880

 Doubles contributions
     4a   (alpha)     5a   (alpha) ---     2a   (alpha)     3a   (alpha)       -0.0488997157
     4a   (alpha)     5a   (alpha) ---     3a   (alpha)     2a   (alpha)        0.0488997157
     4a   (alpha)     6a   (alpha) ---     1a   (alpha)     3a   (alpha)        0.0390034820
     4a   (alpha)     6a   (alpha) ---     3a   (alpha)     1a   (alpha)       -0.0390034820
     5a   (alpha)     4a   (alpha) ---     2a   (alpha)     3a   (alpha)        0.0488997157
     5a   (alpha)     4a   (alpha) ---     3a   (alpha)     2a   (alpha)       -0.0488997157
     6a   (alpha)     4a   (alpha) ---     1a   (alpha)     3a   (alpha)       -0.0390034820
     6a   (alpha)     4a   (alpha) ---     3a   (alpha)     1a   (alpha)        0.0390034820
     4a   (alpha)     4a   (beta ) ---     1a   (alpha)     1a   (beta )       -0.0626680256
     4a   (alpha)     4a   (beta ) ---     2a   (alpha)     2a   (beta )       -0.0901557145
     4a   (alpha)     4a   (beta ) ---     3a   (alpha)     3a   (beta )       -0.2747908801
     4a   (alpha)     5a   (beta ) ---     1a   (alpha)     2a   (beta )        0.0483850114
     4a   (alpha)     5a   (beta ) ---     2a   (alpha)     1a   (beta )        0.0301697341
     4a   (alpha)     5a   (beta ) ---     2a   (alpha)     3a   (beta )       -0.1292381566
     4a   (alpha)     5a   (beta ) ---     3a   (alpha)     2a   (beta )       -0.0803384409
     4a   (alpha)     6a   (beta ) ---     1a   (alpha)     1a   (beta )        0.0280295937
     4a   (alpha)     6a   (beta ) ---     1a   (alpha)     3a   (beta )        0.0977371995
     4a   (alpha)     6a   (beta ) ---     2a   (alpha)     2a   (beta )       -0.0255128965
     4a   (alpha)     6a   (beta ) ---     3a   (alpha)     1a   (beta )        0.0587337175
     4a   (alpha)     6a   (beta ) ---     3a   (alpha)     3a   (beta )        0.0324365343
     4a   (alpha)     7a   (beta ) ---     2a   (alpha)     3a   (beta )        0.0236857006
     4a   (alpha)     7a   (beta ) ---     3a   (alpha)     2a   (beta )        0.0208683364
     4a   (alpha)     8a   (beta ) ---     1a   (alpha)     3a   (beta )        0.0398387276
     4a   (alpha)     8a   (beta ) ---     3a   (alpha)     1a   (beta )        0.0308423760
     4a   (alpha)     8a   (beta ) ---     3a   (alpha)     3a   (beta )       -0.0206365452
     4a   (alpha)     9a   (beta ) ---     1a   (alpha)     2a   (beta )        0.0225202039
     4a   (alpha)     9a   (beta ) ---     2a   (alpha)     1a   (beta )        0.0211164355
     4a   (alpha)     9a   (beta ) ---     2a   (alpha)     3a   (beta )       -0.0337062879
     4a   (alpha)     9a   (beta ) ---     3a   (alpha)     2a   (beta )       -0.0286948767
     4a   (alpha)    10a   (beta ) ---     1a   (alpha)     3a   (beta )        0.0284755648
     4a   (alpha)    10a   (beta ) ---     2a   (alpha)     2a   (beta )       -0.0350103455
     4a   (alpha)    10a   (beta ) ---     3a   (alpha)     3a   (beta )       -0.0351735142
     4a   (alpha)    11a   (beta ) ---     2a   (alpha)     3a   (beta )        0.0290534328
     4a   (alpha)    16a   (beta ) ---     1a   (alpha)     3a   (beta )       -0.0326666293
     4a   (alpha)    16a   (beta ) ---     3a   (alpha)     1a   (beta )       -0.0216275994
     4a   (alpha)    16a   (beta ) ---     3a   (alpha)     3a   (beta )       -0.0247723771
     5a   (alpha)     4a   (beta ) ---     1a   (alpha)     2a   (beta )        0.0301697341
     5a   (alpha)     4a   (beta ) ---     2a   (alpha)     1a   (beta )        0.0483850114
     5a   (alpha)     4a   (beta ) ---     2a   (alpha)     3a   (beta )       -0.0803384409
     5a   (alpha)     4a   (beta ) ---     3a   (alpha)     2a   (beta )       -0.1292381566
     5a   (alpha)     5a   (beta ) ---     1a   (alpha)     1a   (beta )       -0.0447180151
     5a   (alpha)     5a   (beta ) ---     1a   (alpha)     3a   (beta )        0.0320626985
     5a   (alpha)     5a   (beta ) ---     2a   (alpha)     2a   (beta )       -0.1091842728
     5a   (alpha)     5a   (beta ) ---     3a   (alpha)     1a   (beta )        0.0320626985
     5a   (alpha)     5a   (beta ) ---     3a   (alpha)     3a   (beta )       -0.0699221141
     5a   (alpha)     6a   (beta ) ---     1a   (alpha)     2a   (beta )        0.0526388281
     5a   (alpha)     6a   (beta ) ---     2a   (alpha)     1a   (beta )        0.0346477267
     5a   (alpha)     6a   (beta ) ---     2a   (alpha)     3a   (beta )       -0.0322361219
     5a   (alpha)     9a   (beta ) ---     2a   (alpha)     2a   (beta )       -0.0304693707
     5a   (alpha)    10a   (beta ) ---     1a   (alpha)     2a   (beta )        0.0292653707
     5a   (alpha)    10a   (beta ) ---     2a   (alpha)     1a   (beta )        0.0274355707
     5a   (alpha)    10a   (beta ) ---     2a   (alpha)     3a   (beta )       -0.0264431299
     5a   (alpha)    10a   (beta ) ---     3a   (alpha)     2a   (beta )       -0.0283106455
     5a   (alpha)    11a   (beta ) ---     2a   (alpha)     2a   (beta )        0.0283430298
     6a   (alpha)     4a   (beta ) ---     1a   (alpha)     1a   (beta )        0.0280295937
     6a   (alpha)     4a   (beta ) ---     1a   (alpha)     3a   (beta )        0.0587337175
     6a   (alpha)     4a   (beta ) ---     2a   (alpha)     2a   (beta )       -0.0255128965
     6a   (alpha)     4a   (beta ) ---     3a   (alpha)     1a   (beta )        0.0977371995
     6a   (alpha)     4a   (beta ) ---     3a   (alpha)     3a   (beta )        0.0324365343
     6a   (alpha)     5a   (beta ) ---     1a   (alpha)     2a   (beta )        0.0346477267
     6a   (alpha)     5a   (beta ) ---     2a   (alpha)     1a   (beta )        0.0526388281
     6a   (alpha)     5a   (beta ) ---     3a   (alpha)     2a   (beta )       -0.0322361219
     6a   (alpha)     6a   (beta ) ---     1a   (alpha)     1a   (beta )       -0.0634755631
     6a   (alpha)     6a   (beta ) ---     1a   (alpha)     3a   (beta )       -0.0209353807
     6a   (alpha)     6a   (beta ) ---     2a   (alpha)     2a   (beta )       -0.0298467497
     6a   (alpha)     6a   (beta ) ---     3a   (alpha)     1a   (beta )       -0.0209353807
     6a   (alpha)     6a   (beta ) ---     3a   (alpha)     3a   (beta )       -0.0385000874
     6a   (alpha)    16a   (beta ) ---     1a   (alpha)     1a   (beta )        0.0239347045
     7a   (alpha)     4a   (beta ) ---     2a   (alpha)     3a   (beta )        0.0208683364
     7a   (alpha)     4a   (beta ) ---     3a   (alpha)     2a   (beta )        0.0236857006
     8a   (alpha)     4a   (beta ) ---     1a   (alpha)     3a   (beta )        0.0308423760
     8a   (alpha)     4a   (beta ) ---     3a   (alpha)     1a   (beta )        0.0398387276
     8a   (alpha)     4a   (beta ) ---     3a   (alpha)     3a   (beta )       -0.0206365452
     9a   (alpha)     4a   (beta ) ---     1a   (alpha)     2a   (beta )        0.0211164355
     9a   (alpha)     4a   (beta ) ---     2a   (alpha)     1a   (beta )        0.0225202039
     9a   (alpha)     4a   (beta ) ---     2a   (alpha)     3a   (beta )       -0.0286948767
     9a   (alpha)     4a   (beta ) ---     3a   (alpha)     2a   (beta )       -0.0337062879
     9a   (alpha)     5a   (beta ) ---     2a   (alpha)     2a   (beta )       -0.0304693707
    10a   (alpha)     4a   (beta ) ---     2a   (alpha)     2a   (beta )       -0.0350103455
    10a   (alpha)     4a   (beta ) ---     3a   (alpha)     1a   (beta )        0.0284755648
    10a   (alpha)     4a   (beta ) ---     3a   (alpha)     3a   (beta )       -0.0351735142
    10a   (alpha)     5a   (beta ) ---     1a   (alpha)     2a   (beta )        0.0274355707
    10a   (alpha)     5a   (beta ) ---     2a   (alpha)     1a   (beta )        0.0292653707
    10a   (alpha)     5a   (beta ) ---     2a   (alpha)     3a   (beta )       -0.0283106455
    10a   (alpha)     5a   (beta ) ---     3a   (alpha)     2a   (beta )       -0.0264431299
    11a   (alpha)     4a   (beta ) ---     3a   (alpha)     2a   (beta )        0.0290534328
    11a   (alpha)     5a   (beta ) ---     2a   (alpha)     2a   (beta )        0.0283430298
    16a   (alpha)     4a   (beta ) ---     1a   (alpha)     3a   (beta )       -0.0216275994
    16a   (alpha)     4a   (beta ) ---     3a   (alpha)     1a   (beta )       -0.0326666293
    16a   (alpha)     4a   (beta ) ---     3a   (alpha)     3a   (beta )       -0.0247723771
    16a   (alpha)     6a   (beta ) ---     1a   (alpha)     1a   (beta )        0.0239347045
 Ground state specification:
 exp(T)|Ref>~(1+T)|Ref>
 ------- a(p)+/a(q) strings ----------

 singles norm

 doubles norm

 Reference string
  0.944558626262020      :(1a)+ (2a)+ (3a)+ (1b)+ (2b)+ (3b)+ |0>

 Singles strings

 Doubles strings
 -0.259556096202913      :(4a)+ (4b)+ (3b)  (3a)  (1a)+ (2a)+ (3a)+ (1b)+ (2b)+ 
 (3b)+ |0>
 -0.122073015670097      :(4a)+ (5b)+ (3b)  (2a)  (1a)+ (2a)+ (3a)+ (1b)+ (2b)+ 
 (3b)+ |0>
 -0.122073015670097      :(5a)+ (4b)+ (2b)  (3a)  (1a)+ (2a)+ (3a)+ (1b)+ (2b)+ 
 (3b)+ |0>
 -0.103130946705276      :(5a)+ (5b)+ (2b)  (2a)  (1a)+ (2a)+ (3a)+ (1b)+ (2b)+ 
 (3b)+ |0>
 -------------------------------------
 enrep_tce =    3.09608540925267     
  EHF(total)         =        -3.02055651
  Shift (HFtot-HFA)  =         0.00000000
 ALL OCCUPIED ORBITALS ARE ACTIVE IN DUCC --> NO SHIFT
 Number of active orbitals                     6
 Number of active alpha electrons                     3
 Number of active beta electrons                     3
  nos                      6
  nvs                    162
 noas                      3
 nobs                      3
 nvas                     81
 nvbs                     81
 nactv                      3
 DUCC MODEL =                      6
 NONHF =  T
 F-T1 correlation    =  -7.192370956475377E-011
 V-T1-T1 correlation =   2.579590188738594E-004
 V-T2 correlation    =  -0.187463579066965     
 Total correlation   =  -0.187205620120015     
 F-T1(Ext) correlation         =  -7.344936976825271E-011
 V-T1(Ext)-T1(Ext) correlation =   2.644309113265996E-004
 V-T2(Ext) correlation         =  -9.524069346886456E-002
 Total Ext correlation         =  -9.497626263098732E-002
1-BODY TIME =  944.405 SECONDS.
  HHHH TIME =  870.811 SECONDS.
  PPPP TIME =   14.932 SECONDS.
  HHHP TIME =   33.322 SECONDS.
  PPPH TIME =   27.950 SECONDS.
  HPHP TIME =   45.266 SECONDS.
  HHPP TIME =   19.101 SECONDS.
 ONE-BODY UNITARY CHECK
 TWO-BODY UNITARY CHECK
 TWO-BODY ANTISYMMETRY CHECK
 TRANSFORMED ~FOCK~ MATRIX
    1    1        -0.5537819250
    1    3         0.0015501768
    1    5        -0.0016682153
    2    2        -0.4938852481
    2    4         0.0024826198
    2    6         0.0038205905
    3    1         0.0015501768
    3    3        -0.3994213866
    3    5         0.0030189184
    4    2         0.0024826198
    4    4        -0.0427495797
    4    6        -0.0015104798
    5    1        -0.0016682153
    5    3         0.0030189184
    5    5         0.0861805244
    6    2         0.0038205905
    6    4        -0.0015104798
    6    6         0.2212358007
 begin_one_electron_integrals
    1    1        -1.7044709798
    1    3        -0.1038343881
    1    5        -0.0572194865
    2    2        -1.5501084254
    2    4         0.1404760263
    2    6         0.0512979603
    3    1        -0.1038343881
    3    3        -1.5028369516
    3    5         0.1259029398
    4    2         0.1404760263
    4    4        -1.3886240981
    4    6         0.1650005358
    5    1        -0.0572194865
    5    3         0.1259029398
    5    5        -1.2144717015
    6    2         0.0512979603
    6    4         0.1650005358
    6    6        -1.1503342367
 end_one_electron_integrals
 begin_two_electron_integrals
    1    1    1    1        0.3103635049
    1    1    1    3        0.0577527259
    1    1    1    5        0.0069248462
    1    2    1    2        0.0992944297
    1    2    1    4       -0.0344250638
    1    2    1    6        0.0007643119
    1    3    1    1        0.0577527259
    1    3    1    3        0.0800720728
    1    3    1    5       -0.0195153312
    1    4    1    2       -0.0344250638
    1    4    1    4        0.0613793078
    1    4    1    6       -0.0252373277
    1    5    1    1        0.0069248462
    1    5    1    3       -0.0195153312
    1    5    1    5        0.0393000682
    1    6    1    2        0.0007643119
    1    6    1    4       -0.0252373277
    1    6    1    6        0.0474444921
    1    1    2    2        0.2449618554
    1    1    2    4       -0.0505636189
    1    1    2    6       -0.0082287907
    1    2    2    1        0.0994451824
    1    2    2    3       -0.0785103689
    1    2    2    5        0.0256606723
    1    3    2    2       -0.0267018808
    1    3    2    4       -0.0402671574
    1    3    2    6        0.0223332129
    1    4    2    1       -0.0341846259
    1    4    2    3       -0.0071895520
    1    4    2    5       -0.0395034307
    1    5    2    2        0.0241978177
    1    5    2    4       -0.0243058025
    1    5    2    6       -0.0304790365
    1    6    2    1        0.0005255693
    1    6    2    3        0.0162972385
    1    6    2    5       -0.0179921913
    1    1    3    1        0.0577527259
    1    1    3    3        0.2650032667
    1    1    3    5       -0.0529045539
    1    2    3    2       -0.0787810943
    1    2    3    4       -0.0534625941
    1    2    3    6        0.0386353142
    1    3    3    1        0.0801595119
    1    3    3    3        0.0225252317
    1    3    3    5       -0.0389487600
    1    4    3    2       -0.0066938136
    1    4    3    4        0.0074849038
    1    4    3    6       -0.0484382397
    1    5    3    1       -0.0196992783
    1    5    3    3       -0.0065286490
    1    5    3    5       -0.0140709825
    1    6    3    2        0.0162148408
    1    6    3    4       -0.0259416816
    1    6    3    6        0.0147658760
    1    1    4    2       -0.0505636189
    1    1    4    4        0.2667075648
    1    1    4    6       -0.0666975801
    1    2    4    1       -0.0341846259
    1    2    4    3       -0.0538901995
    1    2    4    5       -0.0777333294
    1    3    4    2       -0.0400769798
    1    3    4    4        0.0197850069
    1    3    4    6       -0.0638801935
    1    4    4    1        0.0620196698
    1    4    4    3        0.0095968270
    1    4    4    5        0.0026594208
    1    5    4    2       -0.0233457675
    1    5    4    4        0.0008048861
    1    5    4    6        0.0101349674
    1    6    4    1       -0.0245462654
    1    6    4    3       -0.0257478025
    1    6    4    5        0.0089687876
    1    1    5    1        0.0069248462
    1    1    5    3       -0.0529045539
    1    1    5    5        0.2367812648
    1    2    5    2        0.0255208793
    1    2    5    4       -0.0775920060
    1    2    5    6       -0.0746333007
    1    3    5    1       -0.0196992783
    1    3    5    3       -0.0400414593
    1    3    5    5       -0.0133867055
    1    4    5    2       -0.0380460206
    1    4    5    4        0.0028264831
    1    4    5    6        0.0205427473
    1    5    5    1        0.0364484709
    1    5    5    3       -0.0149587345
    1    5    5    5        0.0158295777
    1    6    5    2       -0.0160598343
    1    6    5    4        0.0096864231
    1    6    5    6       -0.0012920634
    1    1    6    2       -0.0082287907
    1    1    6    4       -0.0666975801
    1    1    6    6        0.2713382259
    1    2    6    1        0.0005255693
    1    2    6    3        0.0394761549
    1    2    6    5       -0.0745649669
    1    3    6    2        0.0230088397
    1    3    6    4       -0.0641237449
    1    3    6    6        0.0392231233
    1    4    6    1       -0.0245462654
    1    4    6    3       -0.0467582491
    1    4    6    5        0.0200967885
    1    5    6    2       -0.0270835549
    1    5    6    4        0.0105309847
    1    5    6    6        0.0048692205
    1    6    6    1        0.0424257880
    1    6    6    3        0.0162067327
    1    6    6    5       -0.0007346382
    2    1    1    2        0.0994451824
    2    1    1    4       -0.0341846259
    2    1    1    6        0.0005255693
    2    2    1    1        0.2449618554
    2    2    1    3       -0.0267018808
    2    2    1    5        0.0241978177
    2    3    1    2       -0.0785103689
    2    3    1    4       -0.0071895520
    2    3    1    6        0.0162972385
    2    4    1    1       -0.0505636189
    2    4    1    3       -0.0402671574
    2    4    1    5       -0.0243058025
    2    5    1    2        0.0256606723
    2    5    1    4       -0.0395034307
    2    5    1    6       -0.0179921913
    2    6    1    1       -0.0082287907
    2    6    1    3        0.0223332129
    2    6    1    5       -0.0304790365
    2    1    2    1        0.0992944297
    2    1    2    3       -0.0787810943
    2    1    2    5        0.0255208793
    2    2    2    2        0.2719407031
    2    2    2    4       -0.0051823697
    2    2    2    6       -0.0299701016
    2    3    2    1       -0.0787810943
    2    3    2    3        0.0909989105
    2    3    2    5       -0.0012043135
    2    4    2    2       -0.0051823697
    2    4    2    4        0.0616501289
    2    4    2    6        0.0087147383
    2    5    2    1        0.0255208793
    2    5    2    3       -0.0012043135
    2    5    2    5        0.0600410629
    2    6    2    2       -0.0299701016
    2    6    2    4        0.0087147383
    2    6    2    6        0.0333262453
    2    1    3    2       -0.0785103689
    2    1    3    4       -0.0538901995
    2    1    3    6        0.0394761549
    2    2    3    1       -0.0267018808
    2    2    3    3        0.2428242046
    2    2    3    5       -0.0090548139
    2    3    3    2        0.0918444634
    2    3    3    4        0.0511150099
    2    3    3    6       -0.0100910046
    2    4    3    1       -0.0400769798
    2    4    3    3       -0.0073767075
    2    4    3    5        0.0536237155
    2    5    3    2       -0.0010956857
    2    5    3    4        0.0247909689
    2    5    3    6        0.0307820480
    2    6    3    1        0.0230088397
    2    6    3    3       -0.0053075611
    2    6    3    5        0.0119721025
    2    1    4    1       -0.0344250638
    2    1    4    3       -0.0534625941
    2    1    4    5       -0.0775920060
    2    2    4    2       -0.0051823697
    2    2    4    4        0.2455668024
    2    2    4    6        0.0011697418
    2    3    4    1       -0.0066938136
    2    3    4    3        0.0507564009
    2    3    4    5        0.0820963670
    2    4    4    2        0.0593348404
    2    4    4    4       -0.0150201691
    2    4    4    6        0.0366844837
    2    5    4    1       -0.0380460206
    2    5    4    3        0.0220378478
    2    5    4    5       -0.0019242724
    2    6    4    2        0.0096559553
    2    6    4    4       -0.0006290511
    2    6    4    6       -0.0133711337
    2    1    5    2        0.0256606723
    2    1    5    4       -0.0777333294
    2    1    5    6       -0.0745649669
    2    2    5    1        0.0241978177
    2    2    5    3       -0.0090548139
    2    2    5    5        0.2498183777
    2    3    5    2       -0.0010956857
    2    3    5    4        0.0822034814
    2    3    5    6        0.0665753536
    2    4    5    1       -0.0233457675
    2    4    5    3        0.0489714548
    2    4    5    5       -0.0073854314
    2    5    5    2        0.0552929806
    2    5    5    4       -0.0029124145
    2    5    5    6       -0.0127775866
    2    6    5    1       -0.0270835549
    2    6    5    3        0.0133312772
    2    6    5    5       -0.0194485492
    2    1    6    1        0.0007643119
    2    1    6    3        0.0386353142
    2    1    6    5       -0.0746333007
    2    2    6    2       -0.0299701016
    2    2    6    4        0.0011697418
    2    2    6    6        0.2293520344
    2    3    6    1        0.0162148408
    2    3    6    3       -0.0100981707
    2    3    6    5        0.0661344939
    2    4    6    2        0.0096559553
    2    4    6    4        0.0355810436
    2    4    6    6       -0.0345140785
    2    5    6    1       -0.0160598343
    2    5    6    3        0.0313096888
    2    5    6    5       -0.0132557126
    2    6    6    2        0.0304874129
    2    6    6    4       -0.0138588370
    2    6    6    6       -0.0053007316
    3    1    1    1        0.0577527259
    3    1    1    3        0.0801595119
    3    1    1    5       -0.0196992783
    3    2    1    2       -0.0787810943
    3    2    1    4       -0.0066938136
    3    2    1    6        0.0162148408
    3    3    1    1        0.2650032667
    3    3    1    3        0.0225252317
    3    3    1    5       -0.0065286490
    3    4    1    2       -0.0534625941
    3    4    1    4        0.0074849038
    3    4    1    6       -0.0259416816
    3    5    1    1       -0.0529045539
    3    5    1    3       -0.0389487600
    3    5    1    5       -0.0140709825
    3    6    1    2        0.0386353142
    3    6    1    4       -0.0484382397
    3    6    1    6        0.0147658760
    3    1    2    2       -0.0267018808
    3    1    2    4       -0.0400769798
    3    1    2    6        0.0230088397
    3    2    2    1       -0.0785103689
    3    2    2    3        0.0918444634
    3    2    2    5       -0.0010956857
    3    3    2    2        0.2428242046
    3    3    2    4       -0.0073767075
    3    3    2    6       -0.0053075611
    3    4    2    1       -0.0538901995
    3    4    2    3        0.0511150099
    3    4    2    5        0.0247909689
    3    5    2    2       -0.0090548139
    3    5    2    4        0.0536237155
    3    5    2    6        0.0119721025
    3    6    2    1        0.0394761549
    3    6    2    3       -0.0100910046
    3    6    2    5        0.0307820480
    3    1    3    1        0.0800720728
    3    1    3    3        0.0225252317
    3    1    3    5       -0.0400414593
    3    2    3    2        0.0909989105
    3    2    3    4        0.0507564009
    3    2    3    6       -0.0100981707
    3    3    3    1        0.0225252317
    3    3    3    3        0.2597645977
    3    3    3    5       -0.0197602498
    3    4    3    2        0.0507564009
    3    4    3    4        0.0734136463
    3    4    3    6       -0.0203349252
    3    5    3    1       -0.0400414593
    3    5    3    3       -0.0197602498
    3    5    3    5        0.0514654851
    3    6    3    2       -0.0100981707
    3    6    3    4       -0.0203349252
    3    6    3    6        0.0477594104
    3    1    4    2       -0.0402671574
    3    1    4    4        0.0197850069
    3    1    4    6       -0.0641237449
    3    2    4    1       -0.0071895520
    3    2    4    3        0.0511150099
    3    2    4    5        0.0822034814
    3    3    4    2       -0.0073767075
    3    3    4    4        0.2538546814
    3    3    4    6       -0.0337826012
    3    4    4    1        0.0095968270
    3    4    4    3        0.0650290687
    3    4    4    5        0.0502078288
    3    5    4    2        0.0489714548
    3    5    4    4       -0.0128833672
    3    5    4    6        0.0362483191
    3    6    4    1       -0.0467582491
    3    6    4    3       -0.0172195533
    3    6    4    5       -0.0073928706
    3    1    5    1       -0.0195153312
    3    1    5    3       -0.0389487600
    3    1    5    5       -0.0133867055
    3    2    5    2       -0.0012043135
    3    2    5    4        0.0820963670
    3    2    5    6        0.0661344939
    3    3    5    1       -0.0065286490
    3    3    5    3       -0.0197602498
    3    3    5    5        0.2350777895
    3    4    5    2        0.0220378478
    3    4    5    4        0.0483292617
    3    4    5    6        0.0448242963
    3    5    5    1       -0.0149587345
    3    5    5    3        0.0509611864
    3    5    5    5       -0.0090703161
    3    6    5    2        0.0313096888
    3    6    5    4       -0.0078638656
    3    6    5    6       -0.0241336006
    3    1    6    2        0.0223332129
    3    1    6    4       -0.0638801935
    3    1    6    6        0.0392231233
    3    2    6    1        0.0162972385
    3    2    6    3       -0.0100910046
    3    2    6    5        0.0665753536
    3    3    6    2       -0.0053075611
    3    3    6    4       -0.0337826012
    3    3    6    6        0.2450516685
    3    4    6    1       -0.0257478025
    3    4    6    3       -0.0172195533
    3    4    6    5        0.0435506274
    3    5    6    2        0.0133312772
    3    5    6    4        0.0344389237
    3    5    6    6       -0.0357083237
    3    6    6    1        0.0162067327
    3    6    6    3        0.0470006193
    3    6    6    5       -0.0241303720
    4    1    1    2       -0.0341846259
    4    1    1    4        0.0620196698
    4    1    1    6       -0.0245462654
    4    2    1    1       -0.0505636189
    4    2    1    3       -0.0400769798
    4    2    1    5       -0.0233457675
    4    3    1    2       -0.0538901995
    4    3    1    4        0.0095968270
    4    3    1    6       -0.0257478025
    4    4    1    1        0.2667075648
    4    4    1    3        0.0197850069
    4    4    1    5        0.0008048861
    4    5    1    2       -0.0777333294
    4    5    1    4        0.0026594208
    4    5    1    6        0.0089687876
    4    6    1    1       -0.0666975801
    4    6    1    3       -0.0638801935
    4    6    1    5        0.0101349674
    4    1    2    1       -0.0344250638
    4    1    2    3       -0.0066938136
    4    1    2    5       -0.0380460206
    4    2    2    2       -0.0051823697
    4    2    2    4        0.0593348404
    4    2    2    6        0.0096559553
    4    3    2    1       -0.0534625941
    4    3    2    3        0.0507564009
    4    3    2    5        0.0220378478
    4    4    2    2        0.2455668024
    4    4    2    4       -0.0150201691
    4    4    2    6       -0.0006290511
    4    5    2    1       -0.0775920060
    4    5    2    3        0.0820963670
    4    5    2    5       -0.0019242724
    4    6    2    2        0.0011697418
    4    6    2    4        0.0366844837
    4    6    2    6       -0.0133711337
    4    1    3    2       -0.0071895520
    4    1    3    4        0.0095968270
    4    1    3    6       -0.0467582491
    4    2    3    1       -0.0402671574
    4    2    3    3       -0.0073767075
    4    2    3    5        0.0489714548
    4    3    3    2        0.0511150099
    4    3    3    4        0.0650290687
    4    3    3    6       -0.0172195533
    4    4    3    1        0.0197850069
    4    4    3    3        0.2538546814
    4    4    3    5       -0.0128833672
    4    5    3    2        0.0822034814
    4    5    3    4        0.0502078288
    4    5    3    6       -0.0073928706
    4    6    3    1       -0.0641237449
    4    6    3    3       -0.0337826012
    4    6    3    5        0.0362483191
    4    1    4    1        0.0613793078
    4    1    4    3        0.0074849038
    4    1    4    5        0.0028264831
    4    2    4    2        0.0616501289
    4    2    4    4       -0.0150201691
    4    2    4    6        0.0355810436
    4    3    4    1        0.0074849038
    4    3    4    3        0.0734136463
    4    3    4    5        0.0483292617
    4    4    4    2       -0.0150201691
    4    4    4    4        0.2496104011
    4    4    4    6       -0.0306432968
    4    5    4    1        0.0028264831
    4    5    4    3        0.0483292617
    4    5    4    5        0.0774213728
    4    6    4    2        0.0355810436
    4    6    4    4       -0.0306432968
    4    6    4    6        0.0559257462
    4    1    5    2       -0.0395034307
    4    1    5    4        0.0026594208
    4    1    5    6        0.0200967885
    4    2    5    1       -0.0243058025
    4    2    5    3        0.0536237155
    4    2    5    5       -0.0073854314
    4    3    5    2        0.0247909689
    4    3    5    4        0.0502078288
    4    3    5    6        0.0435506274
    4    4    5    1        0.0008048861
    4    4    5    3       -0.0128833672
    4    4    5    5        0.2276614878
    4    5    5    2       -0.0029124145
    4    5    5    4        0.0777049545
    4    5    5    6        0.0624278775
    4    6    5    1        0.0105309847
    4    6    5    3        0.0344389237
    4    6    5    5        0.0004542978
    4    1    6    1       -0.0252373277
    4    1    6    3       -0.0484382397
    4    1    6    5        0.0205427473
    4    2    6    2        0.0087147383
    4    2    6    4        0.0366844837
    4    2    6    6       -0.0345140785
    4    3    6    1       -0.0259416816
    4    3    6    3       -0.0203349252
    4    3    6    5        0.0448242963
    4    4    6    2       -0.0006290511
    4    4    6    4       -0.0306432968
    4    4    6    6        0.2364945053
    4    5    6    1        0.0096864231
    4    5    6    3       -0.0078638656
    4    5    6    5        0.0624799854
    4    6    6    2       -0.0138588370
    4    6    6    4        0.0562613283
    4    6    6    6       -0.0419653136
    5    1    1    1        0.0069248462
    5    1    1    3       -0.0196992783
    5    1    1    5        0.0364484709
    5    2    1    2        0.0255208793
    5    2    1    4       -0.0380460206
    5    2    1    6       -0.0160598343
    5    3    1    1       -0.0529045539
    5    3    1    3       -0.0400414593
    5    3    1    5       -0.0149587345
    5    4    1    2       -0.0775920060
    5    4    1    4        0.0028264831
    5    4    1    6        0.0096864231
    5    5    1    1        0.2367812648
    5    5    1    3       -0.0133867055
    5    5    1    5        0.0158295777
    5    6    1    2       -0.0746333007
    5    6    1    4        0.0205427473
    5    6    1    6       -0.0012920634
    5    1    2    2        0.0241978177
    5    1    2    4       -0.0233457675
    5    1    2    6       -0.0270835549
    5    2    2    1        0.0256606723
    5    2    2    3       -0.0010956857
    5    2    2    5        0.0552929806
    5    3    2    2       -0.0090548139
    5    3    2    4        0.0489714548
    5    3    2    6        0.0133312772
    5    4    2    1       -0.0777333294
    5    4    2    3        0.0822034814
    5    4    2    5       -0.0029124145
    5    5    2    2        0.2498183777
    5    5    2    4       -0.0073854314
    5    5    2    6       -0.0194485492
    5    6    2    1       -0.0745649669
    5    6    2    3        0.0665753536
    5    6    2    5       -0.0127775866
    5    1    3    1       -0.0195153312
    5    1    3    3       -0.0065286490
    5    1    3    5       -0.0149587345
    5    2    3    2       -0.0012043135
    5    2    3    4        0.0220378478
    5    2    3    6        0.0313096888
    5    3    3    1       -0.0389487600
    5    3    3    3       -0.0197602498
    5    3    3    5        0.0509611864
    5    4    3    2        0.0820963670
    5    4    3    4        0.0483292617
    5    4    3    6       -0.0078638656
    5    5    3    1       -0.0133867055
    5    5    3    3        0.2350777895
    5    5    3    5       -0.0090703161
    5    6    3    2        0.0661344939
    5    6    3    4        0.0448242963
    5    6    3    6       -0.0241336006
    5    1    4    2       -0.0243058025
    5    1    4    4        0.0008048861
    5    1    4    6        0.0105309847
    5    2    4    1       -0.0395034307
    5    2    4    3        0.0247909689
    5    2    4    5       -0.0029124145
    5    3    4    2        0.0536237155
    5    3    4    4       -0.0128833672
    5    3    4    6        0.0344389237
    5    4    4    1        0.0026594208
    5    4    4    3        0.0502078288
    5    4    4    5        0.0777049545
    5    5    4    2       -0.0073854314
    5    5    4    4        0.2276614878
    5    5    4    6        0.0004542978
    5    6    4    1        0.0200967885
    5    6    4    3        0.0435506274
    5    6    4    5        0.0624278775
    5    1    5    1        0.0393000682
    5    1    5    3       -0.0140709825
    5    1    5    5        0.0158295777
    5    2    5    2        0.0600410629
    5    2    5    4       -0.0019242724
    5    2    5    6       -0.0132557126
    5    3    5    1       -0.0140709825
    5    3    5    3        0.0514654851
    5    3    5    5       -0.0090703161
    5    4    5    2       -0.0019242724
    5    4    5    4        0.0774213728
    5    4    5    6        0.0624799854
    5    5    5    1        0.0158295777
    5    5    5    3       -0.0090703161
    5    5    5    5        0.2319674138
    5    6    5    2       -0.0132557126
    5    6    5    4        0.0624799854
    5    6    5    6        0.0639478228
    5    1    6    2       -0.0304790365
    5    1    6    4        0.0101349674
    5    1    6    6        0.0048692205
    5    2    6    1       -0.0179921913
    5    2    6    3        0.0307820480
    5    2    6    5       -0.0127775866
    5    3    6    2        0.0119721025
    5    3    6    4        0.0362483191
    5    3    6    6       -0.0357083237
    5    4    6    1        0.0089687876
    5    4    6    3       -0.0073928706
    5    4    6    5        0.0624278775
    5    5    6    2       -0.0194485492
    5    5    6    4        0.0004542978
    5    5    6    6        0.2176899813
    5    6    6    1       -0.0007346382
    5    6    6    3       -0.0241303720
    5    6    6    5        0.0639684673
    6    1    1    2        0.0005255693
    6    1    1    4       -0.0245462654
    6    1    1    6        0.0424257880
    6    2    1    1       -0.0082287907
    6    2    1    3        0.0230088397
    6    2    1    5       -0.0270835549
    6    3    1    2        0.0394761549
    6    3    1    4       -0.0467582491
    6    3    1    6        0.0162067327
    6    4    1    1       -0.0666975801
    6    4    1    3       -0.0641237449
    6    4    1    5        0.0105309847
    6    5    1    2       -0.0745649669
    6    5    1    4        0.0200967885
    6    5    1    6       -0.0007346382
    6    6    1    1        0.2713382259
    6    6    1    3        0.0392231233
    6    6    1    5        0.0048692205
    6    1    2    1        0.0007643119
    6    1    2    3        0.0162148408
    6    1    2    5       -0.0160598343
    6    2    2    2       -0.0299701016
    6    2    2    4        0.0096559553
    6    2    2    6        0.0304874129
    6    3    2    1        0.0386353142
    6    3    2    3       -0.0100981707
    6    3    2    5        0.0313096888
    6    4    2    2        0.0011697418
    6    4    2    4        0.0355810436
    6    4    2    6       -0.0138588370
    6    5    2    1       -0.0746333007
    6    5    2    3        0.0661344939
    6    5    2    5       -0.0132557126
    6    6    2    2        0.2293520344
    6    6    2    4       -0.0345140785
    6    6    2    6       -0.0053007316
    6    1    3    2        0.0162972385
    6    1    3    4       -0.0257478025
    6    1    3    6        0.0162067327
    6    2    3    1        0.0223332129
    6    2    3    3       -0.0053075611
    6    2    3    5        0.0133312772
    6    3    3    2       -0.0100910046
    6    3    3    4       -0.0172195533
    6    3    3    6        0.0470006193
    6    4    3    1       -0.0638801935
    6    4    3    3       -0.0337826012
    6    4    3    5        0.0344389237
    6    5    3    2        0.0665753536
    6    5    3    4        0.0435506274
    6    5    3    6       -0.0241303720
    6    6    3    1        0.0392231233
    6    6    3    3        0.2450516685
    6    6    3    5       -0.0357083237
    6    1    4    1       -0.0252373277
    6    1    4    3       -0.0259416816
    6    1    4    5        0.0096864231
    6    2    4    2        0.0087147383
    6    2    4    4       -0.0006290511
    6    2    4    6       -0.0138588370
    6    3    4    1       -0.0484382397
    6    3    4    3       -0.0203349252
    6    3    4    5       -0.0078638656
    6    4    4    2        0.0366844837
    6    4    4    4       -0.0306432968
    6    4    4    6        0.0562613283
    6    5    4    1        0.0205427473
    6    5    4    3        0.0448242963
    6    5    4    5        0.0624799854
    6    6    4    2       -0.0345140785
    6    6    4    4        0.2364945053
    6    6    4    6       -0.0419653136
    6    1    5    2       -0.0179921913
    6    1    5    4        0.0089687876
    6    1    5    6       -0.0007346382
    6    2    5    1       -0.0304790365
    6    2    5    3        0.0119721025
    6    2    5    5       -0.0194485492
    6    3    5    2        0.0307820480
    6    3    5    4       -0.0073928706
    6    3    5    6       -0.0241303720
    6    4    5    1        0.0101349674
    6    4    5    3        0.0362483191
    6    4    5    5        0.0004542978
    6    5    5    2       -0.0127775866
    6    5    5    4        0.0624278775
    6    5    5    6        0.0639684673
    6    6    5    1        0.0048692205
    6    6    5    3       -0.0357083237
    6    6    5    5        0.2176899813
    6    1    6    1        0.0474444921
    6    1    6    3        0.0147658760
    6    1    6    5       -0.0012920634
    6    2    6    2        0.0333262453
    6    2    6    4       -0.0133711337
    6    2    6    6       -0.0053007316
    6    3    6    1        0.0147658760
    6    3    6    3        0.0477594104
    6    3    6    5       -0.0241336006
    6    4    6    2       -0.0133711337
    6    4    6    4        0.0559257462
    6    4    6    6       -0.0419653136
    6    5    6    1       -0.0012920634
    6    5    6    3       -0.0241336006
    6    5    6    5        0.0639478228
    6    6    6    2       -0.0053007316
    6    6    6    4       -0.0419653136
    6    6    6    6        0.2431290962
 end_two_electron_integrals

 Task  times  cpu:     2096.1s     wall:     2096.1s
 
 
                                NWChem Input Module
                                -------------------
 
 
 Summary of allocated global arrays
-----------------------------------
  No active global arrays


MA_summarize_allocated_blocks: starting scan ...
MA_summarize_allocated_blocks: scan completed: 0 heap blocks, 0 stack blocks
MA usage statistics:

	allocation statistics:
					      heap	     stack
					      ----	     -----
	current number of blocks	         0	         0
	maximum number of blocks	        16	        42
	current total bytes		         0	         0
	maximum total bytes		     80104	20728605000
	maximum total K-bytes		        81	  20728605
	maximum total M-bytes		         1	     20729
 
 
                                     CITATION
                                     --------
                Please cite the following reference when publishing
                           results obtained with NWChem:
 
          E. Apra, E. J. Bylaska, W. A. de Jong, N. Govind, K. Kowalski,
       T. P. Straatsma, M. Valiev, H. J. J. van Dam, Y. Alexeev, J. Anchell,
       V. Anisimov, F. W. Aquino, R. Atta-Fynn, J. Autschbach, N. P. Bauman,
     J. C. Becca, D. E. Bernholdt, K. Bhaskaran-Nair, S. Bogatko, P. Borowski,
         J. Boschen, J. Brabec, A. Bruner, E. Cauet, Y. Chen, G. N. Chuev,
      C. J. Cramer, J. Daily, M. J. O. Deegan, T. H. Dunning Jr., M. Dupuis,
   K. G. Dyall, G. I. Fann, S. A. Fischer, A. Fonari, H. Fruchtl, L. Gagliardi,
      J. Garza, N. Gawande, S. Ghosh, K. Glaesemann, A. W. Gotz, J. Hammond,
       V. Helms, E. D. Hermes, K. Hirao, S. Hirata, M. Jacquelin, L. Jensen,
   B. G. Johnson, H. Jonsson, R. A. Kendall, M. Klemm, R. Kobayashi, V. Konkov,
      S. Krishnamoorthy, M. Krishnan, Z. Lin, R. D. Lins, R. J. Littlefield,
      A. J. Logsdail, K. Lopata, W. Ma, A. V. Marenich, J. Martin del Campo,
   D. Mejia-Rodriguez, J. E. Moore, J. M. Mullin, T. Nakajima, D. R. Nascimento,
    J. A. Nichols, P. J. Nichols, J. Nieplocha, A. Otero-de-la-Roza, B. Palmer,
    A. Panyala, T. Pirojsirikul, B. Peng, R. Peverati, J. Pittner, L. Pollack,
   R. M. Richard, P. Sadayappan, G. C. Schatz, W. A. Shelton, D. W. Silverstein,
   D. M. A. Smith, T. A. Soares, D. Song, M. Swart, H. L. Taylor, G. S. Thomas,
            V. Tipparaju, D. G. Truhlar, K. Tsemekhman, T. Van Voorhis,
      A. Vazquez-Mayagoitia, P. Verma, O. Villa, A. Vishnu, K. D. Vogiatzis,
        D. Wang, J. H. Weare, M. J. Williamson, T. L. Windus, K. Wolinski,
        A. T. Wong, Q. Wu, C. Yang, Q. Yu, M. Zacharias, Z. Zhang, Y. Zhao,
                                and R. J. Harrison
                        "NWChem: Past, present, and future
                         J. Chem. Phys. 152, 184102 (2020)
                               doi:10.1063/5.0004997
 
                                      AUTHORS
                                      -------
  E. Apra, E. J. Bylaska, N. Govind, K. Kowalski, M. Valiev, D. Mejia-Rodriguez,
       A. Kunitsa, N. P. Bauman, A. Panyala, W. A. de Jong, T. P. Straatsma,
   H. J. J. van Dam, D. Wang, T. L. Windus, J. Hammond, J. Autschbach, A. Woods,
    K. Bhaskaran-Nair, J. Brabec, K. Lopata, S. A. Fischer, S. Krishnamoorthy,
     M. Jacquelin, W. Ma, M. Klemm, O. Villa, Y. Chen, V. Anisimov, F. Aquino,
     S. Hirata, M. T. Hackler, E. Hermes, L. Jensen, J. E. Moore, J. C. Becca,
      V. Konjkov, T. Risthaus, M. Malagoli, A. Marenich, A. Otero-de-la-Roza,
        J. Mullin, P. Nichols, R. Peverati, J. Pittner, Y. Zhao, P.-D. Fan,
        A. Fonari, M. J. Williamson, R. J. Harrison, J. R. Rehr, M. Dupuis,
     D. Silverstein, D. M. A. Smith, J. Nieplocha, V. Tipparaju, M. Krishnan,
     B. E. Van Kuiken, A. Vazquez-Mayagoitia, M. Swart, Q. Wu, T. Van Voorhis,
     A. A. Auer, M. Nooijen, L. D. Crosby, E. Brown, G. Cisneros, G. I. Fann,
   H. Fruchtl, J. Garza, K. Hirao, R. A. Kendall, J. A. Nichols, K. Tsemekhman,
    K. Wolinski, J. Anchell, D. E. Bernholdt, P. Borowski, T. Clark, D. Clerc,
   H. Dachsel, M. J. O. Deegan, K. Dyall, D. Elwood, E. Glendening, M. Gutowski,
   A. C. Hess, J. Jaffe, B. G. Johnson, J. Ju, R. Kobayashi, R. Kutteh, Z. Lin,
   R. Littlefield, X. Long, B. Meng, T. Nakajima, S. Niu, L. Pollack, M. Rosing,
   K. Glaesemann, G. Sandrone, M. Stave, H. Taylor, G. Thomas, J. H. van Lenthe,
                               A. T. Wong, Z. Zhang.

 Total times  cpu:     2096.5s     wall:     2096.5s
