 argument  1 = input.nw
  NWChem w/ OpenMP: maximum threads =    1



============================== echo of input deck ==============================
 echo
 start H2O
 title "H2O"

 memory total 24 gb

 geometry units bohr
 symmetry c1
        O  0.00000000  0.00000000  0.00000000
        H  0.00000000  1.85266725  0.00000000
        H  1.72558000 -0.64860000  0.00000000
 end

 basis spherical
   * library cc-pVDZ
 end

 mcscf
   active  8
   actelec 10
   multiplicity 1
   maxiter 40
   vectors input h2o.mos
   vectors output h2o.mos
 end

 task mcscf

 scf
   vectors input h2o.mos
   vectors output h2o-trash.mos
   noscf
 end

 tce
   2eorb
   2emet 13
   ccsd
   maxiter 300
 end

 set tce:print_integrals T
 set tce:qorb 8
 set tce:qela 5
 set tce:qelb 5

# set tce:qducc T
# set tce:nactv 3
# set tce:nonhf T
# set tce:ducc_model 6

 set tce:printtol 0.02

 task tce
================================================================================


                                         
                                         


             Northwest Computational Chemistry Package (NWChem) 7.0.1
             --------------------------------------------------------


                    Environmental Molecular Sciences Laboratory
                       Pacific Northwest National Laboratory
                                Richland, WA 99352

                              Copyright (c) 1994-2020
                       Pacific Northwest National Laboratory
                            Battelle Memorial Institute

             NWChem is an open-source computational chemistry package
                        distributed under the terms of the
                      Educational Community License (ECL) 2.0
             A copy of the license is included with this distribution
                              in the LICENSE.TXT file

                                  ACKNOWLEDGMENT
                                  --------------

            This software and its documentation were developed at the
            EMSL at Pacific Northwest National Laboratory, a multiprogram
            national laboratory, operated for the U.S. Department of Energy
            by Battelle under Contract Number DE-AC05-76RL01830. Support
            for this work was provided by the Department of Energy Office
            of Biological and Environmental Research, Office of Basic
            Energy Sciences, and the Office of Advanced Scientific Computing.


           Job information
           ---------------

    hostname        = WE46210
    program         = /home/baum612/code/nwchem/bin/LINUX64/nwchem
    date            = Wed Sep  4 16:30:36 2024

    compiled        = Wed_Sep_04_02:00:17_2024
    source          = /home/baum612/code/nwchem
    nwchem branch   = 7.0.0
    nwchem revision = nwchem_on_git-4191-g39d87d64de
    ga revision     = 5.8.1
    use scalapack   = F
    input           = input.nw
    prefix          = H2O.
    data base       = ./H2O.db
    status          = startup
    nproc           =        1
    time left       =     -1s



           Memory information
           ------------------

    heap     =  805306366 doubles =   6144.0 Mbytes
    stack    =  805306363 doubles =   6144.0 Mbytes
    global   = 1610612736 doubles =  12288.0 Mbytes (distinct from heap & stack)
    total    = 3221225465 doubles =  24576.0 Mbytes
    verify   = yes
    hardfail = no 


           Directory information
           ---------------------

  0 permanent = .
  0 scratch   = .




                                NWChem Input Module
                                -------------------


                                        H2O
                                        ---
 Turning off AUTOSYM since
 SYMMETRY directive was detected!


          ------
          auto-z
          ------
  no constraints, skipping    0.0000000000000000     
  no constraints, skipping    0.0000000000000000     


                             Geometry "geometry" -> ""
                             -------------------------

 Output coordinates in a.u. (scale by  1.000000000 to convert to a.u.)

  No.       Tag          Charge          X              Y              Z
 ---- ---------------- ---------- -------------- -------------- --------------
    1 O                    8.0000    -0.17255800    -0.12040673     0.00000000
    2 H                    1.0000    -0.17255800     1.73226053     0.00000000
    3 H                    1.0000     1.55302200    -0.76900673     0.00000000

      Atomic Mass 
      ----------- 

      O                 15.994910
      H                  1.007825


 Effective nuclear repulsion energy (a.u.)       8.9868709426

            Nuclear Dipole moment (a.u.) 
            ----------------------------
        X                 Y               Z
 ---------------- ---------------- ----------------
    -0.0000000000     0.0000000000     0.0000000000



                                Z-matrix (autoz)
                                -------- 

 Units are Angstrom for bonds and degrees for angles

      Type          Name      I     J     K     L     M      Value
      ----------- --------  ----- ----- ----- ----- ----- ----------
    1 Stretch                  1     2                       0.98039
    2 Stretch                  1     3                       0.97551
    3 Bend                     2     1     3               110.59992


            XYZ format geometry
            -------------------
     3
 geometry
 O                    -0.09131377    -0.06371650     0.00000000
 H                    -0.09131377     0.91667286     0.00000000
 H                     0.82182391    -0.40694086     0.00000000

 ==============================================================================
                                internuclear distances
 ------------------------------------------------------------------------------
       center one      |      center two      | atomic units |       a.u.
 ------------------------------------------------------------------------------
    2 H                |   1 O                |     1.85267  |     1.85267
    3 H                |   1 O                |     1.84345  |     1.84345
 ------------------------------------------------------------------------------
                         number of included internuclear distances:          2
 ==============================================================================



 ==============================================================================
                                 internuclear angles
 ------------------------------------------------------------------------------
        center 1       |       center 2       |       center 3       |  degrees
 ------------------------------------------------------------------------------
    2 H                |   1 O                |   3 H                |   110.60
 ------------------------------------------------------------------------------
                            number of included internuclear angles:          1
 ==============================================================================





 Summary of "ao basis" -> "" (spherical)
 ------------------------------------------------------------------------------
       Tag                 Description            Shells   Functions and Types
 ---------------- ------------------------------  ------  ---------------------
 *                          cc-pVDZ                   on all atoms 


                      Basis "ao basis" -> "ao basis" (spherical)
                      -----
  O (Oxygen)
  ----------
            Exponent  Coefficients 
       -------------- ---------------------------------------------------------
  1 S  1.17200000E+04  0.000710
  1 S  1.75900000E+03  0.005470
  1 S  4.00800000E+02  0.027837
  1 S  1.13700000E+02  0.104800
  1 S  3.70300000E+01  0.283062
  1 S  1.32700000E+01  0.448719
  1 S  5.02500000E+00  0.270952
  1 S  1.01300000E+00  0.015458

  2 S  1.17200000E+04 -0.000160
  2 S  1.75900000E+03 -0.001263
  2 S  4.00800000E+02 -0.006267
  2 S  1.13700000E+02 -0.025716
  2 S  3.70300000E+01 -0.070924
  2 S  1.32700000E+01 -0.165411
  2 S  5.02500000E+00 -0.116955
  2 S  1.01300000E+00  0.557368

  3 S  3.02300000E-01  1.000000

  4 P  1.77000000E+01  0.043018
  4 P  3.85400000E+00  0.228913
  4 P  1.04600000E+00  0.508728

  5 P  2.75300000E-01  1.000000

  6 D  1.18500000E+00  1.000000

  H (Hydrogen)
  ------------
            Exponent  Coefficients 
       -------------- ---------------------------------------------------------
  1 S  1.30100000E+01  0.019685
  1 S  1.96200000E+00  0.137977
  1 S  4.44600000E-01  0.478148

  2 S  1.22000000E-01  1.000000

  3 P  7.27000000E-01  1.000000



 Summary of "ao basis" -> "ao basis" (spherical)
 ------------------------------------------------------------------------------
       Tag                 Description            Shells   Functions and Types
 ---------------- ------------------------------  ------  ---------------------
 O                          cc-pVDZ                  6       14   3s2p1d
 H                          cc-pVDZ                  3        5   2s1p



                            NWChem Direct MCSCF Module
                            --------------------------


                                        H2O


     -----------------------------------
       Basis functions:             24
       Inactive shells:              0
       Active shells:                8
       Active electrons:            10
       Symmetry:                    a       
       Multiplicity:                 1
       Orbital rotations:          128
     -----------------------------------

     -----------------------------------
       E2 extrapolation:             F
       Conjugacy:                    T
       Micro CI relax:               T
       Canonical orbitals:           T
       Maximum iterations:          40
       Converge threshold:    1.00E-04
       Conjugacy resets:            20
       Initial levelshift:        0.10
     -----------------------------------

 Loading old vectors from job with title :

H2O


   input molecular orbitals = ./h2o.mos
  output molecular orbtials = ./h2o.mos

       No. of determinants:          3136


  Starting Orbital Energies
   -20.558821    -1.328943    -0.718416    -0.565544    -0.495161    -0.022198
    -0.021579    -0.001379     0.640542     1.092114     1.104744     1.196571
     1.457072     1.480422     1.703605     1.871101     1.885609     2.325044
     2.376595     3.231206     3.337954     3.433506     3.871653     4.055955

  Orbital Symmetry Irreps
a    a    a    a    a    a    a    a    a    a    a    a    a    a    a   
a    a    a    a    a    a    a    a    a   

 #quartets = 3.081D+03 #integrals = 2.131D+04 #direct =  0.0% #cached =100.0%


 Integral file          = ./H2O.aoints.0
 Record size in doubles =  65536        No. of integs per rec  =  43688
 Max. records in memory =      4        Max. records in file   = 232557
 No. of bits per label  =      8        No. of bits per value  =     64




          %%%%% MacroIteration   1 %%%%%


          Number of sigma calls:       20
                       o<<<<< (aa):             0.00
                       o<<<<< (bb):             0.00
                       o<<<<< (ab):             0.06
                       o<<<<< (total)           0.06
                       o<<<<< (aa) ff           0.00
                       o<<<<< (aa) gop          0.00
                       o<<<<< (aa) dot          0.00
                       o<<<<< (ab) str          0.00
                       o<<<<< (ab) gath         0.00
                       o<<<<< (ab) dotab        0.00
                       o<<<<< (ab) scat         0.00
                       o<<<<< (ab) sync         0.00
                       o<<<<< Density           0.01
                       o<<<<< Density one       0.00
                       o<<<<< Density two       0.00
                       o<<<<< Density ab        0.01
                       o<<<<< Spin adapt        0.53
                       o<<<<< Symm adapt        0.00

                       o<<<<< (ab) max sync:      0.00

           >>>| Valence CI:            -85.073772798754
           >>>| MCSCF energy:          -76.086901856190
           >>>| Gradient norm:          0.919350103D-02
     --- Warning:   16 Hessian diagonals < 0.05 ---

                              ----- Line search ------

        step       energy         lsg     num-lsg   num-lsh   lsrat    time
      ------- ---------------- --------- --------- --------- ------- --------
       0.0000     -76.08690186 -1.01D-05  0.00D+00  0.00D+00 0.0D+00      0.8

          Number of sigma calls:       17
                       o<<<<< (aa):             0.00
                       o<<<<< (bb):             0.00
                       o<<<<< (ab):             0.06
                       o<<<<< (total)           0.07
                       o<<<<< (aa) ff           0.00
                       o<<<<< (aa) gop          0.00
                       o<<<<< (aa) dot          0.00
                       o<<<<< (ab) str          0.00
                       o<<<<< (ab) gath         0.00
                       o<<<<< (ab) dotab        0.00
                       o<<<<< (ab) scat         0.00
                       o<<<<< (ab) sync         0.00
                       o<<<<< Density           0.01
                       o<<<<< Density one       0.01
                       o<<<<< Density two       0.00
                       o<<<<< Density ab        0.00
                       o<<<<< Spin adapt        0.37
                       o<<<<< Symm adapt        0.00

                       o<<<<< (ab) max sync:      0.00
       1.0000     -76.08690721 -5.93D-07 -5.93D-07  9.53D-06 5.9D-02      1.3
     --- Orbitals canonicalized ---



          %%%%% MacroIteration   2 %%%%%


          Number of sigma calls:       14
                       o<<<<< (aa):             0.00
                       o<<<<< (bb):             0.00
                       o<<<<< (ab):             0.06
                       o<<<<< (total)           0.06
                       o<<<<< (aa) ff           0.00
                       o<<<<< (aa) gop          0.00
                       o<<<<< (aa) dot          0.00
                       o<<<<< (ab) str          0.00
                       o<<<<< (ab) gath         0.00
                       o<<<<< (ab) dotab        0.00
                       o<<<<< (ab) scat         0.00
                       o<<<<< (ab) sync         0.00
                       o<<<<< Density           0.01
                       o<<<<< Density one       0.00
                       o<<<<< Density two       0.00
                       o<<<<< Density ab        0.01
                       o<<<<< Spin adapt        0.37
                       o<<<<< Symm adapt        0.00

                       o<<<<< (ab) max sync:      0.00

           >>>| Valence CI:            -85.073778155807
           >>>| MCSCF energy:          -76.086907213243
           >>>| Gradient norm:          0.105716589D-02
     --- Warning:   16 Hessian diagonals < 0.05 ---
     --- Conjugacy reset ---

                              ----- Line search ------

        step       energy         lsg     num-lsg   num-lsh   lsrat    time
      ------- ---------------- --------- --------- --------- ------- --------
       0.0000     -76.08690721 -2.36D-07  0.00D+00  0.00D+00 0.0D+00      1.8

          Number of sigma calls:       11
                       o<<<<< (aa):             0.00
                       o<<<<< (bb):             0.00
                       o<<<<< (ab):             0.02
                       o<<<<< (total)           0.03
                       o<<<<< (aa) ff           0.00
                       o<<<<< (aa) gop          0.00
                       o<<<<< (aa) dot          0.00
                       o<<<<< (ab) str          0.00
                       o<<<<< (ab) gath         0.00
                       o<<<<< (ab) dotab        0.00
                       o<<<<< (ab) scat         0.00
                       o<<<<< (ab) sync         0.00
                       o<<<<< Density           0.01
                       o<<<<< Density one       0.01
                       o<<<<< Density two       0.00
                       o<<<<< Density ab        0.00
                       o<<<<< Spin adapt        0.30
                       o<<<<< Symm adapt        0.00

                       o<<<<< (ab) max sync:      0.00
       1.0000     -76.08690737 -7.98D-08 -7.98D-08  1.56D-07 3.4D-01      2.2

          Number of sigma calls:       11
                       o<<<<< (aa):             0.00
                       o<<<<< (bb):             0.00
                       o<<<<< (ab):             0.03
                       o<<<<< (total)           0.03
                       o<<<<< (aa) ff           0.00
                       o<<<<< (aa) gop          0.00
                       o<<<<< (aa) dot          0.00
                       o<<<<< (ab) str          0.00
                       o<<<<< (ab) gath         0.00
                       o<<<<< (ab) dotab        0.00
                       o<<<<< (ab) scat         0.00
                       o<<<<< (ab) sync         0.00
                       o<<<<< Density           0.00
                       o<<<<< Density one       0.00
                       o<<<<< Density two       0.00
                       o<<<<< Density ab        0.00
                       o<<<<< Spin adapt        0.31
                       o<<<<< Symm adapt        0.00

                       o<<<<< (ab) max sync:      0.00
       1.5123     -76.08690739  8.60D-11  8.13D-11  1.56D-07 3.6D-04      2.5



          %%%%% MacroIteration   3 %%%%%


          Number of sigma calls:        1
                       o<<<<< (aa):             0.00
                       o<<<<< (bb):             0.00
                       o<<<<< (ab):             0.00
                       o<<<<< (total)           0.00
                       o<<<<< (aa) ff           0.00
                       o<<<<< (aa) gop          0.00
                       o<<<<< (aa) dot          0.00
                       o<<<<< (ab) str          0.00
                       o<<<<< (ab) gath         0.00
                       o<<<<< (ab) dotab        0.00
                       o<<<<< (ab) scat         0.00
                       o<<<<< (ab) sync         0.00
                       o<<<<< Density           0.02
                       o<<<<< Density one       0.01
                       o<<<<< Density two       0.00
                       o<<<<< Density ab        0.01
                       o<<<<< Spin adapt        0.00
                       o<<<<< Symm adapt        0.00

                       o<<<<< (ab) max sync:      0.00

           >>>| Valence CI:            -85.073778333905
           >>>| MCSCF energy:          -76.086907391342
           >>>| Gradient norm:          0.195277505D-03
     --- Warning:   16 Hessian diagonals < 0.05 ---
     --- Warning: Precondition failed to converge:Residue: current= 0.5D-01 required= 0.3D-01---

                              ----- Line search ------

        step       energy         lsg     num-lsg   num-lsh   lsrat    time
      ------- ---------------- --------- --------- --------- ------- --------
       0.0000     -76.08690739 -2.62D-08  0.00D+00  0.00D+00 0.0D+00      2.6

          Number of sigma calls:       10
                       o<<<<< (aa):             0.00
                       o<<<<< (bb):             0.00
                       o<<<<< (ab):             0.03
                       o<<<<< (total)           0.03
                       o<<<<< (aa) ff           0.00
                       o<<<<< (aa) gop          0.00
                       o<<<<< (aa) dot          0.00
                       o<<<<< (ab) str          0.00
                       o<<<<< (ab) gath         0.00
                       o<<<<< (ab) dotab        0.00
                       o<<<<< (ab) scat         0.00
                       o<<<<< (ab) sync         0.00
                       o<<<<< Density           0.00
                       o<<<<< Density one       0.00
                       o<<<<< Density two       0.00
                       o<<<<< Density ab        0.00
                       o<<<<< Spin adapt        0.25
                       o<<<<< Symm adapt        0.00

                       o<<<<< (ab) max sync:      0.00
       1.0000     -76.08690741 -1.41D-08 -1.41D-08  1.21D-08 5.4D-01      2.9

          Number of sigma calls:       10
                       o<<<<< (aa):             0.00
                       o<<<<< (bb):             0.00
                       o<<<<< (ab):             0.04
                       o<<<<< (total)           0.05
                       o<<<<< (aa) ff           0.00
                       o<<<<< (aa) gop          0.00
                       o<<<<< (aa) dot          0.00
                       o<<<<< (ab) str          0.00
                       o<<<<< (ab) gath         0.00
                       o<<<<< (ab) dotab        0.00
                       o<<<<< (ab) scat         0.00
                       o<<<<< (ab) sync         0.00
                       o<<<<< Density           0.00
                       o<<<<< Density one       0.00
                       o<<<<< Density two       0.00
                       o<<<<< Density ab        0.00
                       o<<<<< Spin adapt        0.30
                       o<<<<< Symm adapt        0.00

                       o<<<<< (ab) max sync:      0.00
       2.1617     -76.08690742  2.35D-12  1.83D-12  1.21D-08 9.0D-05      3.3



          %%%%% MacroIteration   4 %%%%%


          Number of sigma calls:        1
                       o<<<<< (aa):             0.00
                       o<<<<< (bb):             0.00
                       o<<<<< (ab):             0.00
                       o<<<<< (total)           0.00
                       o<<<<< (aa) ff           0.00
                       o<<<<< (aa) gop          0.00
                       o<<<<< (aa) dot          0.00
                       o<<<<< (ab) str          0.00
                       o<<<<< (ab) gath         0.00
                       o<<<<< (ab) dotab        0.00
                       o<<<<< (ab) scat         0.00
                       o<<<<< (ab) sync         0.00
                       o<<<<< Density           0.00
                       o<<<<< Density one       0.00
                       o<<<<< Density two       0.00
                       o<<<<< Density ab        0.00
                       o<<<<< Spin adapt        0.00
                       o<<<<< Symm adapt        0.00

                       o<<<<< (ab) max sync:      0.00

           >>>| Valence CI:            -85.073778362214
           >>>| MCSCF energy:          -76.086907419651
           >>>| Gradient norm:          0.180278215D-03
     --- Warning:   16 Hessian diagonals < 0.05 ---
     --- Warning: Precondition failed to converge:Residue: current= 0.1D+00 required= 0.3D-01---
 Increase level shift to     0.20

                              ----- Line search ------

        step       energy         lsg     num-lsg   num-lsh   lsrat    time
      ------- ---------------- --------- --------- --------- ------- --------
       0.0000     -76.08690742 -8.47D-09  0.00D+00  0.00D+00 0.0D+00      3.4

          Number of sigma calls:       10
                       o<<<<< (aa):             0.00
                       o<<<<< (bb):             0.00
                       o<<<<< (ab):             0.05
                       o<<<<< (total)           0.05
                       o<<<<< (aa) ff           0.00
                       o<<<<< (aa) gop          0.00
                       o<<<<< (aa) dot          0.00
                       o<<<<< (ab) str          0.00
                       o<<<<< (ab) gath         0.00
                       o<<<<< (ab) dotab        0.00
                       o<<<<< (ab) scat         0.00
                       o<<<<< (ab) sync         0.00
                       o<<<<< Density           0.01
                       o<<<<< Density one       0.00
                       o<<<<< Density two       0.00
                       o<<<<< Density ab        0.01
                       o<<<<< Spin adapt        0.27
                       o<<<<< Symm adapt        0.00

                       o<<<<< (ab) max sync:      0.00
       1.0000     -76.08690743 -8.45D-09 -8.45D-09  1.99D-11 1.0D+00      3.8
  restricting step size    424.73294595905372     

          Number of sigma calls:       11
                       o<<<<< (aa):             0.00
                       o<<<<< (bb):             0.00
                       o<<<<< (ab):             0.04
                       o<<<<< (total)           0.05
                       o<<<<< (aa) ff           0.00
                       o<<<<< (aa) gop          0.00
                       o<<<<< (aa) dot          0.00
                       o<<<<< (ab) str          0.00
                       o<<<<< (ab) gath         0.00
                       o<<<<< (ab) dotab        0.00
                       o<<<<< (ab) scat         0.00
                       o<<<<< (ab) sync         0.00
                       o<<<<< Density           0.01
                       o<<<<< Density one       0.00
                       o<<<<< Density two       0.00
                       o<<<<< Density ab        0.01
                       o<<<<< Spin adapt        0.26
                       o<<<<< Symm adapt        0.00

                       o<<<<< (ab) max sync:      0.00
       5.0000     -76.08690746 -8.37D-09 -8.37D-09  2.06D-11 9.9D-01      4.1
  restricting step size    406.41577040922380     

          Number of sigma calls:       12
                       o<<<<< (aa):             0.00
                       o<<<<< (bb):             0.00
                       o<<<<< (ab):             0.05
                       o<<<<< (total)           0.05
                       o<<<<< (aa) ff           0.00
                       o<<<<< (aa) gop          0.00
                       o<<<<< (aa) dot          0.00
                       o<<<<< (ab) str          0.00
                       o<<<<< (ab) gath         0.00
                       o<<<<< (ab) dotab        0.00
                       o<<<<< (ab) scat         0.00
                       o<<<<< (ab) sync         0.00
                       o<<<<< Density           0.01
                       o<<<<< Density one       0.00
                       o<<<<< Density two       0.00
                       o<<<<< Density ab        0.01
                       o<<<<< Spin adapt        0.43
                       o<<<<< Symm adapt        0.00

                       o<<<<< (ab) max sync:      0.00
      15.0000     -76.08690754 -8.14D-09 -8.14D-09  2.26D-11 9.6D-01      4.6
  restricting step size    360.19086767001573     

          Number of sigma calls:       12
                       o<<<<< (aa):             0.00
                       o<<<<< (bb):             0.00
                       o<<<<< (ab):             0.06
                       o<<<<< (total)           0.06
                       o<<<<< (aa) ff           0.00
                       o<<<<< (aa) gop          0.00
                       o<<<<< (aa) dot          0.00
                       o<<<<< (ab) str          0.00
                       o<<<<< (ab) gath         0.00
                       o<<<<< (ab) dotab        0.00
                       o<<<<< (ab) scat         0.00
                       o<<<<< (ab) sync         0.00
                       o<<<<< Density           0.02
                       o<<<<< Density one       0.01
                       o<<<<< Density two       0.00
                       o<<<<< Density ab        0.01
                       o<<<<< Spin adapt        0.37
                       o<<<<< Symm adapt        0.00

                       o<<<<< (ab) max sync:      0.00
      31.0000     -76.08690767 -7.72D-09 -7.72D-09  2.63D-11 9.1D-01      5.1
  restricting step size    293.25788053725364     

          Number of sigma calls:       12
                       o<<<<< (aa):             0.00
                       o<<<<< (bb):             0.00
                       o<<<<< (ab):             0.05
                       o<<<<< (total)           0.06
                       o<<<<< (aa) ff           0.00
                       o<<<<< (aa) gop          0.00
                       o<<<<< (aa) dot          0.00
                       o<<<<< (ab) str          0.00
                       o<<<<< (ab) gath         0.00
                       o<<<<< (ab) dotab        0.00
                       o<<<<< (ab) scat         0.00
                       o<<<<< (ab) sync         0.00
                       o<<<<< Density           0.02
                       o<<<<< Density one       0.01
                       o<<<<< Density two       0.00
                       o<<<<< Density ab        0.01
                       o<<<<< Spin adapt        0.30
                       o<<<<< Symm adapt        0.00

                       o<<<<< (ab) max sync:      0.00
      47.0000     -76.08690779 -7.23D-09 -7.23D-09  3.09D-11 8.5D-01      5.5
  restricting step size    234.06454131827951     

          Number of sigma calls:       12
                       o<<<<< (aa):             0.00
                       o<<<<< (bb):             0.00
                       o<<<<< (ab):             0.04
                       o<<<<< (total)           0.04
                       o<<<<< (aa) ff           0.00
                       o<<<<< (aa) gop          0.00
                       o<<<<< (aa) dot          0.00
                       o<<<<< (ab) str          0.00
                       o<<<<< (ab) gath         0.00
                       o<<<<< (ab) dotab        0.00
                       o<<<<< (ab) scat         0.00
                       o<<<<< (ab) sync         0.00
                       o<<<<< Density           0.01
                       o<<<<< Density one       0.00
                       o<<<<< Density two       0.00
                       o<<<<< Density ab        0.01
                       o<<<<< Spin adapt        0.38
                       o<<<<< Symm adapt        0.00

                       o<<<<< (ab) max sync:      0.00
      63.0000     -76.08690790 -6.66D-09 -6.66D-09  3.54D-11 7.9D-01      6.0
  restricting step size    188.25581961073939     

          Number of sigma calls:       12
                       o<<<<< (aa):             0.00
                       o<<<<< (bb):             0.00
                       o<<<<< (ab):             0.06
                       o<<<<< (total)           0.06
                       o<<<<< (aa) ff           0.00
                       o<<<<< (aa) gop          0.00
                       o<<<<< (aa) dot          0.00
                       o<<<<< (ab) str          0.00
                       o<<<<< (ab) gath         0.00
                       o<<<<< (ab) dotab        0.00
                       o<<<<< (ab) scat         0.00
                       o<<<<< (ab) sync         0.00
                       o<<<<< Density           0.00
                       o<<<<< Density one       0.00
                       o<<<<< Density two       0.00
                       o<<<<< Density ab        0.00
                       o<<<<< Spin adapt        0.33
                       o<<<<< Symm adapt        0.00

                       o<<<<< (ab) max sync:      0.00
      79.0000     -76.08690800 -6.02D-09 -6.03D-09  3.98D-11 7.1D-01      6.4
  restricting step size    151.17490114739249     

          Number of sigma calls:       12
                       o<<<<< (aa):             0.00
                       o<<<<< (bb):             0.00
                       o<<<<< (ab):             0.06
                       o<<<<< (total)           0.06
                       o<<<<< (aa) ff           0.00
                       o<<<<< (aa) gop          0.00
                       o<<<<< (aa) dot          0.00
                       o<<<<< (ab) str          0.00
                       o<<<<< (ab) gath         0.00
                       o<<<<< (ab) dotab        0.00
                       o<<<<< (ab) scat         0.00
                       o<<<<< (ab) sync         0.00
                       o<<<<< Density           0.00
                       o<<<<< Density one       0.00
                       o<<<<< Density two       0.00
                       o<<<<< Density ab        0.00
                       o<<<<< Spin adapt        0.39
                       o<<<<< Symm adapt        0.00

                       o<<<<< (ab) max sync:      0.00
      95.0000     -76.08690809 -5.31D-09 -5.32D-09  4.42D-11 6.3D-01      6.9
  restricting step size    120.09402685103041     

          Number of sigma calls:       12
                       o<<<<< (aa):             0.01
                       o<<<<< (bb):             0.00
                       o<<<<< (ab):             0.06
                       o<<<<< (total)           0.07
                       o<<<<< (aa) ff           0.00
                       o<<<<< (aa) gop          0.00
                       o<<<<< (aa) dot          0.00
                       o<<<<< (ab) str          0.00
                       o<<<<< (ab) gath         0.00
                       o<<<<< (ab) dotab        0.00
                       o<<<<< (ab) scat         0.00
                       o<<<<< (ab) sync         0.00
                       o<<<<< Density           0.00
                       o<<<<< Density one       0.00
                       o<<<<< Density two       0.00
                       o<<<<< Density ab        0.00
                       o<<<<< Spin adapt        0.31
                       o<<<<< Symm adapt        0.00

                       o<<<<< (ab) max sync:      0.00
     111.0000     -76.08690817 -4.54D-09 -4.54D-09  4.86D-11 5.4D-01      7.3
  restricting step size    93.309498811885959     

          Number of sigma calls:       12
                       o<<<<< (aa):             0.00
                       o<<<<< (bb):             0.00
                       o<<<<< (ab):             0.05
                       o<<<<< (total)           0.05
                       o<<<<< (aa) ff           0.00
                       o<<<<< (aa) gop          0.00
                       o<<<<< (aa) dot          0.00
                       o<<<<< (ab) str          0.00
                       o<<<<< (ab) gath         0.00
                       o<<<<< (ab) dotab        0.00
                       o<<<<< (ab) scat         0.00
                       o<<<<< (ab) sync         0.00
                       o<<<<< Density           0.01
                       o<<<<< Density one       0.01
                       o<<<<< Density two       0.00
                       o<<<<< Density ab        0.00
                       o<<<<< Spin adapt        0.34
                       o<<<<< Symm adapt        0.00

                       o<<<<< (ab) max sync:      0.00
     127.0000     -76.08690824 -3.69D-09 -3.69D-09  5.29D-11 4.4D-01      7.7
  restricting step size    69.702141162321482     

          Number of sigma calls:       12
                       o<<<<< (aa):             0.00
                       o<<<<< (bb):             0.00
                       o<<<<< (ab):             0.03
                       o<<<<< (total)           0.03
                       o<<<<< (aa) ff           0.00
                       o<<<<< (aa) gop          0.00
                       o<<<<< (aa) dot          0.00
                       o<<<<< (ab) str          0.00
                       o<<<<< (ab) gath         0.00
                       o<<<<< (ab) dotab        0.00
                       o<<<<< (ab) scat         0.00
                       o<<<<< (ab) sync         0.00
                       o<<<<< Density           0.01
                       o<<<<< Density one       0.00
                       o<<<<< Density two       0.00
                       o<<<<< Density ab        0.01
                       o<<<<< Spin adapt        0.36
                       o<<<<< Symm adapt        0.00

                       o<<<<< (ab) max sync:      0.00
     143.0000     -76.08690829 -2.77D-09 -2.78D-09  5.72D-11 3.3D-01      8.2
  restricting step size    48.506338203498842     

          Number of sigma calls:       12
                       o<<<<< (aa):             0.00
                       o<<<<< (bb):             0.00
                       o<<<<< (ab):             0.06
                       o<<<<< (total)           0.06
                       o<<<<< (aa) ff           0.00
                       o<<<<< (aa) gop          0.00
                       o<<<<< (aa) dot          0.00
                       o<<<<< (ab) str          0.00
                       o<<<<< (ab) gath         0.00
                       o<<<<< (ab) dotab        0.00
                       o<<<<< (ab) scat         0.00
                       o<<<<< (ab) sync         0.00
                       o<<<<< Density           0.01
                       o<<<<< Density one       0.00
                       o<<<<< Density two       0.00
                       o<<<<< Density ab        0.01
                       o<<<<< Spin adapt        0.37
                       o<<<<< Symm adapt        0.00

                       o<<<<< (ab) max sync:      0.00
     159.0000     -76.08690833 -1.79D-09 -1.80D-09  6.14D-11 2.1D-01      8.6
  restricting step size    29.180516934833378     

          Number of sigma calls:       12
                       o<<<<< (aa):             0.00
                       o<<<<< (bb):             0.00
                       o<<<<< (ab):             0.05
                       o<<<<< (total)           0.05
                       o<<<<< (aa) ff           0.00
                       o<<<<< (aa) gop          0.00
                       o<<<<< (aa) dot          0.00
                       o<<<<< (ab) str          0.00
                       o<<<<< (ab) gath         0.00
                       o<<<<< (ab) dotab        0.00
                       o<<<<< (ab) scat         0.00
                       o<<<<< (ab) sync         0.00
                       o<<<<< Density           0.01
                       o<<<<< Density one       0.00
                       o<<<<< Density two       0.00
                       o<<<<< Density ab        0.01
                       o<<<<< Spin adapt        0.34
                       o<<<<< Symm adapt        0.00

                       o<<<<< (ab) max sync:      0.00
     175.0000     -76.08690835 -7.43D-10 -7.48D-10  6.56D-11 8.8D-02      9.1



          %%%%% MacroIteration   5 %%%%%


          Number of sigma calls:        1
                       o<<<<< (aa):             0.00
                       o<<<<< (bb):             0.00
                       o<<<<< (ab):             0.00
                       o<<<<< (total)           0.00
                       o<<<<< (aa) ff           0.00
                       o<<<<< (aa) gop          0.00
                       o<<<<< (aa) dot          0.00
                       o<<<<< (ab) str          0.00
                       o<<<<< (ab) gath         0.00
                       o<<<<< (ab) dotab        0.00
                       o<<<<< (ab) scat         0.00
                       o<<<<< (ab) sync         0.00
                       o<<<<< Density           0.01
                       o<<<<< Density one       0.01
                       o<<<<< Density two       0.00
                       o<<<<< Density ab        0.00
                       o<<<<< Spin adapt        0.00
                       o<<<<< Symm adapt        0.00

                       o<<<<< (ab) max sync:      0.00

           >>>| Valence CI:            -85.073779290520
           >>>| MCSCF energy:          -76.086908347956
           >>>| Gradient norm:          0.126169352D-01
     --- Warning:   16 Hessian diagonals < 0.05 ---

                              ----- Line search ------

        step       energy         lsg     num-lsg   num-lsh   lsrat    time
      ------- ---------------- --------- --------- --------- ------- --------
       0.0000     -76.08690835 -8.48D-05  0.00D+00  0.00D+00 0.0D+00      9.2

          Number of sigma calls:       16
                       o<<<<< (aa):             0.00
                       o<<<<< (bb):             0.00
                       o<<<<< (ab):             0.06
                       o<<<<< (total)           0.06
                       o<<<<< (aa) ff           0.00
                       o<<<<< (aa) gop          0.00
                       o<<<<< (aa) dot          0.00
                       o<<<<< (ab) str          0.00
                       o<<<<< (ab) gath         0.00
                       o<<<<< (ab) dotab        0.00
                       o<<<<< (ab) scat         0.00
                       o<<<<< (ab) sync         0.00
                       o<<<<< Density           0.00
                       o<<<<< Density one       0.00
                       o<<<<< Density two       0.00
                       o<<<<< Density ab        0.00
                       o<<<<< Spin adapt        0.51
                       o<<<<< Symm adapt        0.00

                       o<<<<< (ab) max sync:      0.00
       1.0000     -76.04081100  1.14D-01  1.03D-01  1.14D-01 1.3D+03      9.8
                    Energy increase :             0.04609735 backtrack

          Number of sigma calls:       17
                       o<<<<< (aa):             0.00
                       o<<<<< (bb):             0.00
                       o<<<<< (ab):             0.06
                       o<<<<< (total)           0.06
                       o<<<<< (aa) ff           0.00
                       o<<<<< (aa) gop          0.00
                       o<<<<< (aa) dot          0.00
                       o<<<<< (ab) str          0.00
                       o<<<<< (ab) gath         0.00
                       o<<<<< (ab) dotab        0.00
                       o<<<<< (ab) scat         0.00
                       o<<<<< (ab) sync         0.00
                       o<<<<< Density           0.00
                       o<<<<< Density one       0.00
                       o<<<<< Density two       0.00
                       o<<<<< Density ab        0.00
                       o<<<<< Spin adapt        0.51
                       o<<<<< Symm adapt        0.00

                       o<<<<< (ab) max sync:      0.00
       0.6667     -76.06580732  4.46D-02  4.01D-02  2.09D-01 5.3D+02     10.4
                    Energy increase :             0.02110102 backtrack

          Number of sigma calls:       16
                       o<<<<< (aa):             0.00
                       o<<<<< (bb):             0.00
                       o<<<<< (ab):             0.08
                       o<<<<< (total)           0.08
                       o<<<<< (aa) ff           0.00
                       o<<<<< (aa) gop          0.00
                       o<<<<< (aa) dot          0.00
                       o<<<<< (ab) str          0.00
                       o<<<<< (ab) gath         0.00
                       o<<<<< (ab) dotab        0.00
                       o<<<<< (ab) scat         0.00
                       o<<<<< (ab) sync         0.00
                       o<<<<< Density           0.01
                       o<<<<< Density one       0.00
                       o<<<<< Density two       0.00
                       o<<<<< Density ab        0.01
                       o<<<<< Spin adapt        0.56
                       o<<<<< Symm adapt        0.00

                       o<<<<< (ab) max sync:      0.00
       0.4444     -76.07688609  6.04D-02  5.78D-02 -7.14D-02 7.1D+02     11.1
                    Energy increase :             0.01002226 backtrack

          Number of sigma calls:       15
                       o<<<<< (aa):             0.00
                       o<<<<< (bb):             0.00
                       o<<<<< (ab):             0.09
                       o<<<<< (total)           0.09
                       o<<<<< (aa) ff           0.00
                       o<<<<< (aa) gop          0.00
                       o<<<<< (aa) dot          0.00
                       o<<<<< (ab) str          0.00
                       o<<<<< (ab) gath         0.00
                       o<<<<< (ab) dotab        0.00
                       o<<<<< (ab) scat         0.00
                       o<<<<< (ab) sync         0.00
                       o<<<<< Density           0.01
                       o<<<<< Density one       0.00
                       o<<<<< Density two       0.00
                       o<<<<< Density ab        0.01
                       o<<<<< Spin adapt        0.49
                       o<<<<< Symm adapt        0.00

                       o<<<<< (ab) max sync:      0.00
       0.2963     -76.08461417  3.38D-02  3.89D-02  1.80D-01 4.0D+02     11.7
                    Energy increase :             0.00229418 backtrack

          Number of sigma calls:       15
                       o<<<<< (aa):             0.00
                       o<<<<< (bb):             0.00
                       o<<<<< (ab):             0.08
                       o<<<<< (total)           0.08
                       o<<<<< (aa) ff           0.00
                       o<<<<< (aa) gop          0.00
                       o<<<<< (aa) dot          0.00
                       o<<<<< (ab) str          0.00
                       o<<<<< (ab) gath         0.00
                       o<<<<< (ab) dotab        0.00
                       o<<<<< (ab) scat         0.00
                       o<<<<< (ab) sync         0.00
                       o<<<<< Density           0.01
                       o<<<<< Density one       0.00
                       o<<<<< Density two       0.00
                       o<<<<< Density ab        0.00
                       o<<<<< Spin adapt        0.48
                       o<<<<< Symm adapt        0.00

                       o<<<<< (ab) max sync:      0.00
       0.1975     -76.08654612  8.29D-03  6.79D-03  2.59D-01 9.8D+01     12.3
                    Energy increase :             0.00036223 backtrack

          Number of sigma calls:       15
                       o<<<<< (aa):             0.00
                       o<<<<< (bb):             0.00
                       o<<<<< (ab):             0.07
                       o<<<<< (total)           0.07
                       o<<<<< (aa) ff           0.00
                       o<<<<< (aa) gop          0.00
                       o<<<<< (aa) dot          0.00
                       o<<<<< (ab) str          0.00
                       o<<<<< (ab) gath         0.00
                       o<<<<< (ab) dotab        0.00
                       o<<<<< (ab) scat         0.00
                       o<<<<< (ab) sync         0.00
                       o<<<<< Density           0.01
                       o<<<<< Density one       0.00
                       o<<<<< Density two       0.00
                       o<<<<< Density ab        0.01
                       o<<<<< Spin adapt        0.40
                       o<<<<< Symm adapt        0.00

                       o<<<<< (ab) max sync:      0.00
       0.1317     -76.08684595  2.00D-03  1.41D-03  9.56D-02 2.4D+01     12.8

          Number of sigma calls:       15
                       o<<<<< (aa):             0.00
                       o<<<<< (bb):             0.00
                       o<<<<< (ab):             0.07
                       o<<<<< (total)           0.07
                       o<<<<< (aa) ff           0.00
                       o<<<<< (aa) gop          0.00
                       o<<<<< (aa) dot          0.00
                       o<<<<< (ab) str          0.00
                       o<<<<< (ab) gath         0.00
                       o<<<<< (ab) dotab        0.00
                       o<<<<< (ab) scat         0.00
                       o<<<<< (ab) sync         0.00
                       o<<<<< Density           0.00
                       o<<<<< Density one       0.00
                       o<<<<< Density two       0.00
                       o<<<<< Density ab        0.00
                       o<<<<< Spin adapt        0.44
                       o<<<<< Symm adapt        0.00

                       o<<<<< (ab) max sync:      0.00
       0.1108     -76.08687846  1.17D-03  1.14D-03  3.94D-02 1.4D+01     13.4

          Number of sigma calls:       15
                       o<<<<< (aa):             0.00
                       o<<<<< (bb):             0.00
                       o<<<<< (ab):             0.07
                       o<<<<< (total)           0.07
                       o<<<<< (aa) ff           0.00
                       o<<<<< (aa) gop          0.00
                       o<<<<< (aa) dot          0.00
                       o<<<<< (ab) str          0.00
                       o<<<<< (ab) gath         0.00
                       o<<<<< (ab) dotab        0.00
                       o<<<<< (ab) scat         0.00
                       o<<<<< (ab) sync         0.00
                       o<<<<< Density           0.01
                       o<<<<< Density one       0.00
                       o<<<<< Density two       0.00
                       o<<<<< Density ab        0.01
                       o<<<<< Spin adapt        0.42
                       o<<<<< Symm adapt        0.00

                       o<<<<< (ab) max sync:      0.00
       0.0810     -76.08690205  4.80D-04  4.44D-04  2.33D-02 5.7D+00     13.9

          Number of sigma calls:       15
                       o<<<<< (aa):             0.00
                       o<<<<< (bb):             0.00
                       o<<<<< (ab):             0.06
                       o<<<<< (total)           0.06
                       o<<<<< (aa) ff           0.00
                       o<<<<< (aa) gop          0.00
                       o<<<<< (aa) dot          0.00
                       o<<<<< (ab) str          0.00
                       o<<<<< (ab) gath         0.00
                       o<<<<< (ab) dotab        0.00
                       o<<<<< (ab) scat         0.00
                       o<<<<< (ab) sync         0.00
                       o<<<<< Density           0.01
                       o<<<<< Density one       0.01
                       o<<<<< Density two       0.00
                       o<<<<< Density ab        0.00
                       o<<<<< Spin adapt        0.53
                       o<<<<< Symm adapt        0.00

                       o<<<<< (ab) max sync:      0.00
       0.0604     -76.08690882  1.97D-04  1.87D-04  1.37D-02 2.3D+00     14.5

          Number of sigma calls:       15
                       o<<<<< (aa):             0.00
                       o<<<<< (bb):             0.01
                       o<<<<< (ab):             0.06
                       o<<<<< (total)           0.07
                       o<<<<< (aa) ff           0.00
                       o<<<<< (aa) gop          0.00
                       o<<<<< (aa) dot          0.00
                       o<<<<< (ab) str          0.00
                       o<<<<< (ab) gath         0.00
                       o<<<<< (ab) dotab        0.00
                       o<<<<< (ab) scat         0.00
                       o<<<<< (ab) sync         0.00
                       o<<<<< Density           0.02
                       o<<<<< Density one       0.01
                       o<<<<< Density two       0.00
                       o<<<<< Density ab        0.01
                       o<<<<< Spin adapt        0.41
                       o<<<<< Symm adapt        0.00

                       o<<<<< (ab) max sync:      0.00
       0.0460     -76.08691062  6.15D-05  5.78D-05  9.45D-03 7.3D-01     15.1

          Number of sigma calls:       14
                       o<<<<< (aa):             0.00
                       o<<<<< (bb):             0.00
                       o<<<<< (ab):             0.04
                       o<<<<< (total)           0.05
                       o<<<<< (aa) ff           0.00
                       o<<<<< (aa) gop          0.00
                       o<<<<< (aa) dot          0.00
                       o<<<<< (ab) str          0.00
                       o<<<<< (ab) gath         0.00
                       o<<<<< (ab) dotab        0.00
                       o<<<<< (ab) scat         0.00
                       o<<<<< (ab) sync         0.00
                       o<<<<< Density           0.00
                       o<<<<< Density one       0.00
                       o<<<<< Density two       0.00
                       o<<<<< Density ab        0.00
                       o<<<<< Spin adapt        0.55
                       o<<<<< Symm adapt        0.00

                       o<<<<< (ab) max sync:      0.00
       0.0395     -76.08691086  1.41D-05  1.34D-05  7.29D-03 1.7D-01     15.7

          Number of sigma calls:       13
                       o<<<<< (aa):             0.00
                       o<<<<< (bb):             0.00
                       o<<<<< (ab):             0.03
                       o<<<<< (total)           0.04
                       o<<<<< (aa) ff           0.00
                       o<<<<< (aa) gop          0.00
                       o<<<<< (aa) dot          0.00
                       o<<<<< (ab) str          0.00
                       o<<<<< (ab) gath         0.00
                       o<<<<< (ab) dotab        0.00
                       o<<<<< (ab) scat         0.00
                       o<<<<< (ab) sync         0.00
                       o<<<<< Density           0.00
                       o<<<<< Density one       0.00
                       o<<<<< Density two       0.00
                       o<<<<< Density ab        0.00
                       o<<<<< Spin adapt        0.40
                       o<<<<< Symm adapt        0.00

                       o<<<<< (ab) max sync:      0.00
       0.0376     -76.08691088  1.63D-06  1.57D-06  6.44D-03 1.9D-02     16.1



          %%%%% MacroIteration   6 %%%%%


          Number of sigma calls:        1
                       o<<<<< (aa):             0.00
                       o<<<<< (bb):             0.00
                       o<<<<< (ab):             0.01
                       o<<<<< (total)           0.01
                       o<<<<< (aa) ff           0.00
                       o<<<<< (aa) gop          0.00
                       o<<<<< (aa) dot          0.00
                       o<<<<< (ab) str          0.00
                       o<<<<< (ab) gath         0.00
                       o<<<<< (ab) dotab        0.00
                       o<<<<< (ab) scat         0.00
                       o<<<<< (ab) sync         0.00
                       o<<<<< Density           0.01
                       o<<<<< Density one       0.00
                       o<<<<< Density two       0.00
                       o<<<<< Density ab        0.01
                       o<<<<< Spin adapt        0.00
                       o<<<<< Symm adapt        0.00

                       o<<<<< (ab) max sync:      0.00

           >>>| Valence CI:            -85.073781821286
           >>>| MCSCF energy:          -76.086910878722
           >>>| Gradient norm:          0.395902080D-01
     --- Warning:   15 Hessian diagonals < 0.05 ---

                              ----- Line search ------

        step       energy         lsg     num-lsg   num-lsh   lsrat    time
      ------- ---------------- --------- --------- --------- ------- --------
       0.0000     -76.08691088 -7.22D-04  0.00D+00  0.00D+00 0.0D+00     16.2

          Number of sigma calls:       19
                       o<<<<< (aa):             0.00
                       o<<<<< (bb):             0.01
                       o<<<<< (ab):             0.11
                       o<<<<< (total)           0.12
                       o<<<<< (aa) ff           0.00
                       o<<<<< (aa) gop          0.00
                       o<<<<< (aa) dot          0.00
                       o<<<<< (ab) str          0.00
                       o<<<<< (ab) gath         0.00
                       o<<<<< (ab) dotab        0.00
                       o<<<<< (ab) scat         0.00
                       o<<<<< (ab) sync         0.00
                       o<<<<< Density           0.01
                       o<<<<< Density one       0.00
                       o<<<<< Density two       0.00
                       o<<<<< Density ab        0.01
                       o<<<<< Spin adapt        0.83
                       o<<<<< Symm adapt        0.00

                       o<<<<< (ab) max sync:      0.00
       1.0000     -74.97237713  2.69D+00  2.46D+00  2.69D+00 3.7D+03     17.2
                    Energy increase :             1.11453375 backtrack

          Number of sigma calls:       18
                       o<<<<< (aa):             0.00
                       o<<<<< (bb):             0.01
                       o<<<<< (ab):             0.07
                       o<<<<< (total)           0.08
                       o<<<<< (aa) ff           0.00
                       o<<<<< (aa) gop          0.00
                       o<<<<< (aa) dot          0.00
                       o<<<<< (ab) str          0.00
                       o<<<<< (ab) gath         0.00
                       o<<<<< (ab) dotab        0.00
                       o<<<<< (ab) scat         0.00
                       o<<<<< (ab) sync         0.00
                       o<<<<< Density           0.01
                       o<<<<< Density one       0.01
                       o<<<<< Density two       0.00
                       o<<<<< Density ab        0.00
                       o<<<<< Spin adapt        0.60
                       o<<<<< Symm adapt        0.00

                       o<<<<< (ab) max sync:      0.00
       0.6667     -75.53739147  9.10D-01  8.04D-01  5.34D+00 1.3D+03     17.9
                    Energy increase :             0.54951941 backtrack

          Number of sigma calls:       17
                       o<<<<< (aa):             0.00
                       o<<<<< (bb):             0.01
                       o<<<<< (ab):             0.06
                       o<<<<< (total)           0.07
                       o<<<<< (aa) ff           0.00
                       o<<<<< (aa) gop          0.00
                       o<<<<< (aa) dot          0.00
                       o<<<<< (ab) str          0.00
                       o<<<<< (ab) gath         0.00
                       o<<<<< (ab) dotab        0.00
                       o<<<<< (ab) scat         0.00
                       o<<<<< (ab) sync         0.00
                       o<<<<< Density           0.01
                       o<<<<< Density one       0.00
                       o<<<<< Density two       0.00
                       o<<<<< Density ab        0.01
                       o<<<<< Spin adapt        0.56
                       o<<<<< Symm adapt        0.00

                       o<<<<< (ab) max sync:      0.00
       0.4444     -75.82057848  7.17D-01  1.18D+00  8.68D-01 9.9D+02     18.6
                    Energy increase :             0.26633239 backtrack

          Number of sigma calls:       16
                       o<<<<< (aa):             0.00
                       o<<<<< (bb):             0.01
                       o<<<<< (ab):             0.07
                       o<<<<< (total)           0.07
                       o<<<<< (aa) ff           0.00
                       o<<<<< (aa) gop          0.00
                       o<<<<< (aa) dot          0.00
                       o<<<<< (ab) str          0.00
                       o<<<<< (ab) gath         0.00
                       o<<<<< (ab) dotab        0.00
                       o<<<<< (ab) scat         0.00
                       o<<<<< (ab) sync         0.00
                       o<<<<< Density           0.01
                       o<<<<< Density one       0.00
                       o<<<<< Density two       0.00
                       o<<<<< Density ab        0.01
                       o<<<<< Spin adapt        0.45
                       o<<<<< Symm adapt        0.00

                       o<<<<< (ab) max sync:      0.00
       0.2963     -75.95383125  8.67D-01  9.74D-01 -1.01D+00 1.2D+03     19.2
                    Energy increase :             0.13307963 backtrack

          Number of sigma calls:       17
                       o<<<<< (aa):             0.00
                       o<<<<< (bb):             0.01
                       o<<<<< (ab):             0.07
                       o<<<<< (total)           0.08
                       o<<<<< (aa) ff           0.00
                       o<<<<< (aa) gop          0.00
                       o<<<<< (aa) dot          0.00
                       o<<<<< (ab) str          0.00
                       o<<<<< (ab) gath         0.00
                       o<<<<< (ab) dotab        0.00
                       o<<<<< (ab) scat         0.00
                       o<<<<< (ab) sync         0.00
                       o<<<<< Density           0.01
                       o<<<<< Density one       0.00
                       o<<<<< Density two       0.00
                       o<<<<< Density ab        0.01
                       o<<<<< Spin adapt        0.62
                       o<<<<< Symm adapt        0.00

                       o<<<<< (ab) max sync:      0.00
       0.1975     -76.02275540  5.54D-01  5.41D-01  3.17D+00 7.7D+02     20.0
                    Energy increase :             0.06415548 backtrack

          Number of sigma calls:       17
                       o<<<<< (aa):             0.00
                       o<<<<< (bb):             0.00
                       o<<<<< (ab):             0.08
                       o<<<<< (total)           0.09
                       o<<<<< (aa) ff           0.00
                       o<<<<< (aa) gop          0.00
                       o<<<<< (aa) dot          0.00
                       o<<<<< (ab) str          0.00
                       o<<<<< (ab) gath         0.00
                       o<<<<< (ab) dotab        0.00
                       o<<<<< (ab) scat         0.00
                       o<<<<< (ab) sync         0.00
                       o<<<<< Density           0.01
                       o<<<<< Density one       0.00
                       o<<<<< Density two       0.00
                       o<<<<< Density ab        0.01
                       o<<<<< Spin adapt        0.55
                       o<<<<< Symm adapt        0.00

                       o<<<<< (ab) max sync:      0.00
       0.1317     -76.05964904  3.50D-01  4.58D-01  3.09D+00 4.8D+02     20.6
                    Energy increase :             0.02726184 backtrack

          Number of sigma calls:       17
                       o<<<<< (aa):             0.00
                       o<<<<< (bb):             0.00
                       o<<<<< (ab):             0.06
                       o<<<<< (total)           0.07
                       o<<<<< (aa) ff           0.00
                       o<<<<< (aa) gop          0.00
                       o<<<<< (aa) dot          0.00
                       o<<<<< (ab) str          0.00
                       o<<<<< (ab) gath         0.00
                       o<<<<< (ab) dotab        0.00
                       o<<<<< (ab) scat         0.00
                       o<<<<< (ab) sync         0.00
                       o<<<<< Density           0.02
                       o<<<<< Density one       0.01
                       o<<<<< Density two       0.00
                       o<<<<< Density ab        0.01
                       o<<<<< Spin adapt        0.62
                       o<<<<< Symm adapt        0.00

                       o<<<<< (ab) max sync:      0.00
       0.0878     -76.07168980  2.85D-01  2.42D-01  1.48D+00 3.9D+02     21.4
                    Energy increase :             0.01522108 backtrack

          Number of sigma calls:       16
                       o<<<<< (aa):             0.00
                       o<<<<< (bb):             0.00
                       o<<<<< (ab):             0.06
                       o<<<<< (total)           0.06
                       o<<<<< (aa) ff           0.00
                       o<<<<< (aa) gop          0.00
                       o<<<<< (aa) dot          0.00
                       o<<<<< (ab) str          0.00
                       o<<<<< (ab) gath         0.00
                       o<<<<< (ab) dotab        0.00
                       o<<<<< (ab) scat         0.00
                       o<<<<< (ab) sync         0.00
                       o<<<<< Density           0.01
                       o<<<<< Density one       0.00
                       o<<<<< Density two       0.00
                       o<<<<< Density ab        0.01
                       o<<<<< Spin adapt        0.51
                       o<<<<< Symm adapt        0.00

                       o<<<<< (ab) max sync:      0.00
       0.0585     -76.08128512  3.16D-01  3.44D-01 -1.08D+00 4.4D+02     22.0
                    Energy increase :             0.00562575 backtrack

          Number of sigma calls:       15
                       o<<<<< (aa):             0.00
                       o<<<<< (bb):             0.01
                       o<<<<< (ab):             0.05
                       o<<<<< (total)           0.06
                       o<<<<< (aa) ff           0.00
                       o<<<<< (aa) gop          0.00
                       o<<<<< (aa) dot          0.00
                       o<<<<< (ab) str          0.00
                       o<<<<< (ab) gath         0.00
                       o<<<<< (ab) dotab        0.00
                       o<<<<< (ab) scat         0.00
                       o<<<<< (ab) sync         0.00
                       o<<<<< Density           0.01
                       o<<<<< Density one       0.00
                       o<<<<< Density two       0.00
                       o<<<<< Density ab        0.01
                       o<<<<< Spin adapt        0.54
                       o<<<<< Symm adapt        0.00

                       o<<<<< (ab) max sync:      0.00
       0.0390     -76.08572018  1.27D-01  1.33D-01  9.71D+00 1.8D+02     22.6
                    Energy increase :             0.00119070 backtrack

          Number of sigma calls:       15
                       o<<<<< (aa):             0.00
                       o<<<<< (bb):             0.01
                       o<<<<< (ab):             0.06
                       o<<<<< (total)           0.07
                       o<<<<< (aa) ff           0.00
                       o<<<<< (aa) gop          0.00
                       o<<<<< (aa) dot          0.00
                       o<<<<< (ab) str          0.00
                       o<<<<< (ab) gath         0.00
                       o<<<<< (ab) dotab        0.00
                       o<<<<< (ab) scat         0.00
                       o<<<<< (ab) sync         0.00
                       o<<<<< Density           0.01
                       o<<<<< Density one       0.00
                       o<<<<< Density two       0.00
                       o<<<<< Density ab        0.00
                       o<<<<< Spin adapt        0.57
                       o<<<<< Symm adapt        0.00

                       o<<<<< (ab) max sync:      0.00
       0.0260     -76.08669282  3.47D-02  2.86D-02  7.10D+00 4.8D+01     23.3

          Number of sigma calls:       15
                       o<<<<< (aa):             0.00
                       o<<<<< (bb):             0.00
                       o<<<<< (ab):             0.06
                       o<<<<< (total)           0.07
                       o<<<<< (aa) ff           0.00
                       o<<<<< (aa) gop          0.00
                       o<<<<< (aa) dot          0.00
                       o<<<<< (ab) str          0.00
                       o<<<<< (ab) gath         0.00
                       o<<<<< (ab) dotab        0.00
                       o<<<<< (ab) scat         0.00
                       o<<<<< (ab) sync         0.00
                       o<<<<< Density           0.02
                       o<<<<< Density one       0.01
                       o<<<<< Density two       0.00
                       o<<<<< Density ab        0.01
                       o<<<<< Spin adapt        0.49
                       o<<<<< Symm adapt        0.00

                       o<<<<< (ab) max sync:      0.00
       0.0211     -76.08681780  1.79D-02  1.72D-02  3.43D+00 2.5D+01     23.9

          Number of sigma calls:       15
                       o<<<<< (aa):             0.00
                       o<<<<< (bb):             0.01
                       o<<<<< (ab):             0.06
                       o<<<<< (total)           0.07
                       o<<<<< (aa) ff           0.00
                       o<<<<< (aa) gop          0.00
                       o<<<<< (aa) dot          0.00
                       o<<<<< (ab) str          0.00
                       o<<<<< (ab) gath         0.00
                       o<<<<< (ab) dotab        0.00
                       o<<<<< (ab) scat         0.00
                       o<<<<< (ab) sync         0.00
                       o<<<<< Density           0.01
                       o<<<<< Density one       0.00
                       o<<<<< Density two       0.00
                       o<<<<< Density ab        0.01
                       o<<<<< Spin adapt        0.49
                       o<<<<< Symm adapt        0.00

                       o<<<<< (ab) max sync:      0.00
       0.0159     -76.08688166  7.69D-03  7.15D-03  1.96D+00 1.1D+01     24.6

          Number of sigma calls:       15
                       o<<<<< (aa):             0.00
                       o<<<<< (bb):             0.00
                       o<<<<< (ab):             0.06
                       o<<<<< (total)           0.07
                       o<<<<< (aa) ff           0.00
                       o<<<<< (aa) gop          0.00
                       o<<<<< (aa) dot          0.00
                       o<<<<< (ab) str          0.00
                       o<<<<< (ab) gath         0.00
                       o<<<<< (ab) dotab        0.00
                       o<<<<< (ab) scat         0.00
                       o<<<<< (ab) sync         0.00
                       o<<<<< Density           0.01
                       o<<<<< Density one       0.01
                       o<<<<< Density two       0.00
                       o<<<<< Density ab        0.00
                       o<<<<< Spin adapt        0.49
                       o<<<<< Symm adapt        0.00

                       o<<<<< (ab) max sync:      0.00
       0.0120     -76.08690285  3.48D-03  3.29D-03  1.07D+00 4.8D+00     25.1

          Number of sigma calls:       15
                       o<<<<< (aa):             0.00
                       o<<<<< (bb):             0.01
                       o<<<<< (ab):             0.06
                       o<<<<< (total)           0.08
                       o<<<<< (aa) ff           0.00
                       o<<<<< (aa) gop          0.00
                       o<<<<< (aa) dot          0.00
                       o<<<<< (ab) str          0.00
                       o<<<<< (ab) gath         0.00
                       o<<<<< (ab) dotab        0.00
                       o<<<<< (ab) scat         0.00
                       o<<<<< (ab) sync         0.00
                       o<<<<< Density           0.01
                       o<<<<< Density one       0.01
                       o<<<<< Density two       0.00
                       o<<<<< Density ab        0.00
                       o<<<<< Spin adapt        0.45
                       o<<<<< Symm adapt        0.00

                       o<<<<< (ab) max sync:      0.00
       0.0087     -76.08691054  1.42D-03  1.33D-03  6.35D-01 2.0D+00     25.7

          Number of sigma calls:       15
                       o<<<<< (aa):             0.00
                       o<<<<< (bb):             0.01
                       o<<<<< (ab):             0.10
                       o<<<<< (total)           0.11
                       o<<<<< (aa) ff           0.00
                       o<<<<< (aa) gop          0.00
                       o<<<<< (aa) dot          0.00
                       o<<<<< (ab) str          0.00
                       o<<<<< (ab) gath         0.00
                       o<<<<< (ab) dotab        0.00
                       o<<<<< (ab) scat         0.00
                       o<<<<< (ab) sync         0.00
                       o<<<<< Density           0.02
                       o<<<<< Density one       0.00
                       o<<<<< Density two       0.00
                       o<<<<< Density ab        0.01
                       o<<<<< Spin adapt        0.68
                       o<<<<< Symm adapt        0.00

                       o<<<<< (ab) max sync:      0.00
       0.0065     -76.08691261  4.96D-04  4.68D-04  4.13D-01 6.9D-01     26.5
  !! Warning ... line search did not converge !!



          %%%%% MacroIteration   7 %%%%%


          Number of sigma calls:        1
                       o<<<<< (aa):             0.00
                       o<<<<< (bb):             0.00
                       o<<<<< (ab):             0.01
                       o<<<<< (total)           0.01
                       o<<<<< (aa) ff           0.00
                       o<<<<< (aa) gop          0.00
                       o<<<<< (aa) dot          0.00
                       o<<<<< (ab) str          0.00
                       o<<<<< (ab) gath         0.00
                       o<<<<< (ab) dotab        0.00
                       o<<<<< (ab) scat         0.00
                       o<<<<< (ab) sync         0.00
                       o<<<<< Density           0.02
                       o<<<<< Density one       0.01
                       o<<<<< Density two       0.00
                       o<<<<< Density ab        0.01
                       o<<<<< Spin adapt        0.00
                       o<<<<< Symm adapt        0.00

                       o<<<<< (ab) max sync:      0.00

           >>>| Valence CI:            -85.073783554491
           >>>| MCSCF energy:          -76.086912611927
           >>>| Gradient norm:          0.669867342D-01
     --- Warning:   14 Hessian diagonals < 0.05 ---

                              ----- Line search ------

        step       energy         lsg     num-lsg   num-lsh   lsrat    time
      ------- ---------------- --------- --------- --------- ------- --------
       0.0000     -76.08691261 -1.70D-03  0.00D+00  0.00D+00 0.0D+00     26.7

          Number of sigma calls:       19
                       o<<<<< (aa):             0.00
                       o<<<<< (bb):             0.00
                       o<<<<< (ab):             0.07
                       o<<<<< (total)           0.08
                       o<<<<< (aa) ff           0.00
                       o<<<<< (aa) gop          0.00
                       o<<<<< (aa) dot          0.00
                       o<<<<< (ab) str          0.00
                       o<<<<< (ab) gath         0.00
                       o<<<<< (ab) dotab        0.00
                       o<<<<< (ab) scat         0.00
                       o<<<<< (ab) sync         0.00
                       o<<<<< Density           0.02
                       o<<<<< Density one       0.01
                       o<<<<< Density two       0.00
                       o<<<<< Density ab        0.01
                       o<<<<< Spin adapt        0.72
                       o<<<<< Symm adapt        0.00

                       o<<<<< (ab) max sync:      0.00
       1.0000     -75.54574529  4.90D-01  7.87D-01  4.92D-01 2.9D+02     27.6
                    Energy increase :             0.54116732 backtrack

          Number of sigma calls:       17
                       o<<<<< (aa):             0.00
                       o<<<<< (bb):             0.00
                       o<<<<< (ab):             0.07
                       o<<<<< (total)           0.08
                       o<<<<< (aa) ff           0.00
                       o<<<<< (aa) gop          0.00
                       o<<<<< (aa) dot          0.00
                       o<<<<< (ab) str          0.00
                       o<<<<< (ab) gath         0.00
                       o<<<<< (ab) dotab        0.00
                       o<<<<< (ab) scat         0.00
                       o<<<<< (ab) sync         0.00
                       o<<<<< Density           0.02
                       o<<<<< Density one       0.01
                       o<<<<< Density two       0.00
                       o<<<<< Density ab        0.01
                       o<<<<< Spin adapt        0.60
                       o<<<<< Symm adapt        0.00

                       o<<<<< (ab) max sync:      0.00
       0.6667     -75.82009336  5.43D-01  8.50D-01 -1.60D-01 3.2D+02     28.3
                    Energy increase :             0.26681925 backtrack

          Number of sigma calls:       16
                       o<<<<< (aa):             0.00
                       o<<<<< (bb):             0.01
                       o<<<<< (ab):             0.08
                       o<<<<< (total)           0.08
                       o<<<<< (aa) ff           0.00
                       o<<<<< (aa) gop          0.00
                       o<<<<< (aa) dot          0.00
                       o<<<<< (ab) str          0.00
                       o<<<<< (ab) gath         0.00
                       o<<<<< (ab) dotab        0.00
                       o<<<<< (ab) scat         0.00
                       o<<<<< (ab) sync         0.00
                       o<<<<< Density           0.01
                       o<<<<< Density one       0.00
                       o<<<<< Density two       0.00
                       o<<<<< Density ab        0.01
                       o<<<<< Spin adapt        0.60
                       o<<<<< Symm adapt        0.00

                       o<<<<< (ab) max sync:      0.00
       0.4444     -75.94959530  4.92D-01  5.57D-01  2.29D-01 2.9D+02     29.0
                    Energy increase :             0.13731732 backtrack

          Number of sigma calls:       17
                       o<<<<< (aa):             0.00
                       o<<<<< (bb):             0.01
                       o<<<<< (ab):             0.06
                       o<<<<< (total)           0.06
                       o<<<<< (aa) ff           0.00
                       o<<<<< (aa) gop          0.00
                       o<<<<< (aa) dot          0.00
                       o<<<<< (ab) str          0.00
                       o<<<<< (ab) gath         0.00
                       o<<<<< (ab) dotab        0.00
                       o<<<<< (ab) scat         0.00
                       o<<<<< (ab) sync         0.00
                       o<<<<< Density           0.00
                       o<<<<< Density one       0.00
                       o<<<<< Density two       0.00
                       o<<<<< Density ab        0.00
                       o<<<<< Spin adapt        0.52
                       o<<<<< Symm adapt        0.00

                       o<<<<< (ab) max sync:      0.00
       0.2963     -76.01989916  3.30D-01  3.93D-01  1.10D+00 1.9D+02     29.6
[...]
    6    5    6    2        0.0099747830
    6    5    3    3        0.0794631846
    6    5    4    3        0.0000010134
    6    5    5    3        0.0000013767
    6    5    6    3        0.0000002691
    6    5    4    4        0.0689475703
    6    5    5    4       -0.0265706933
    6    5    6    4        0.0629855611
    6    5    5    5        0.0438146318
    6    5    6    5        0.0852804904
    7    5    1    1       -0.4263708537
    7    5    2    1       -0.0101091315
    7    5    3    1        0.0000002780
    7    5    4    1        0.0042735214
    7    5    5    1        0.0015252918
    7    5    6    1        0.0083167771
    7    5    7    1        0.0013840385
    7    5    2    2       -0.2068184227
    7    5    3    2       -0.0000057545
    7    5    4    2        0.0122705736
    7    5    5    2        0.0006870357
    7    5    6    2       -0.0089355116
    7    5    7    2       -0.0041245059
    7    5    3    3       -0.1684186668
    7    5    4    3       -0.0000028712
    7    5    5    3        0.0000002804
    7    5    6    3        0.0000009580
    7    5    7    3        0.0000009484
    7    5    4    4       -0.1046651686
    7    5    5    4       -0.0014287648
    7    5    6    4       -0.1104072754
    7    5    7    4       -0.0637464880
    7    5    5    5       -0.1206095014
    7    5    6    5       -0.0547210694
    7    5    7    5        0.1437834691
    7    5    6    6       -0.1106333309
    8    5    1    1       -0.0000047681
    8    5    2    1       -0.0000002320
    8    5    3    1        0.0008834345
    8    5    4    1        0.0000000781
    8    5    5    1        0.0000005883
    8    5    6    1        0.0000005246
    8    5    7    1       -0.0000009403
    8    5    8    1        0.0010229629
    8    5    2    2       -0.0000019800
    8    5    3    2        0.0008161611
    8    5    4    2       -0.0000001308
    8    5    5    2        0.0000019948
    8    5    6    2        0.0000005136
    8    5    7    2       -0.0000016283
    8    5    8    2        0.0012367317
    8    5    3    3       -0.0000011682
    8    5    4    3        0.0005293144
    8    5    5    3        0.0038848003
    8    5    6    3        0.0070370493
    8    5    7    3       -0.0130729726
    8    5    8    3       -0.0000011423
    8    5    4    4       -0.0000017920
    8    5    5    4        0.0000006635
    8    5    6    4       -0.0000002532
    8    5    7    4       -0.0000005129
    8    5    8    4        0.0005113654
    8    5    5    5       -0.0000011460
    8    5    6    5       -0.0000000439
    8    5    7    5        0.0000003878
    8    5    8    5        0.0151690719
    8    5    6    6       -0.0000013203
    8    5    7    6       -0.0000007401
    8    5    7    7       -0.0000026225
    6    6    1    1        1.0282723674
    6    6    2    1        0.0097139072
    6    6    3    1       -0.0000002153
    6    6    4    1        0.0070301932
    6    6    5    1        0.0055902886
    6    6    6    1        0.0140971952
    6    6    2    2        0.5959888865
    6    6    3    2        0.0000004518
    6    6    4    2        0.0502988591
    6    6    5    2        0.0380627512
    6    6    6    2        0.0384193391
    6    6    3    3        0.6277705574
    6    6    4    3        0.0000063433
    6    6    5    3        0.0000019436
    6    6    6    3        0.0000115398
    6    6    4    4        0.6842527263
    6    6    5    4        0.0572107802
    6    6    6    4        0.1568902903
    6    6    5    5        0.6448737535
    6    6    6    5        0.0416913122
    6    6    6    6        0.7389473325
    7    6    1    1       -0.0106119859
    7    6    2    1       -0.0018480253
    7    6    3    1        0.0000001368
    7    6    4    1        0.0051656731
    7    6    5    1       -0.0064824348
    7    6    6    1        0.0015141887
    7    6    7    1        0.0158314682
    7    6    2    2       -0.0188141135
    7    6    3    2       -0.0000008338
    7    6    4    2        0.0171513329
    7    6    5    2       -0.0467662233
    7    6    6    2       -0.0001780338
    7    6    7    2        0.0228289506
    7    6    3    3       -0.0023669969
    7    6    4    3        0.0000006716
    7    6    5    3       -0.0000011646
    7    6    6    3        0.0000011552
    7    6    7    3        0.0000057799
    7    6    4    4        0.0437462008
    7    6    5    4       -0.0714762932
    7    6    6    4        0.0092964910
    7    6    7    4       -0.0232584425
    7    6    5    5       -0.0345249722
    7    6    6    5        0.0295747674
    7    6    7    5        0.0163070932
    7    6    6    6       -0.0312210001
    7    6    7    6        0.0859801798
    8    6    1    1       -0.0000187979
    8    6    2    1       -0.0000011284
    8    6    3    1        0.0096542982
    8    6    4    1        0.0000004874
    8    6    5    1        0.0000004179
    8    6    6    1        0.0000008848
    8    6    7    1       -0.0000004290
    8    6    8    1        0.0138778451
    8    6    2    2       -0.0000127798
    8    6    3    2        0.0361753756
    8    6    4    2       -0.0000020787
    8    6    5    2        0.0000011812
    8    6    6    2       -0.0000006042
    8    6    7    2       -0.0000016130
    8    6    8    2        0.0131888833
    8    6    3    3       -0.0000006347
    8    6    4    3        0.0328003684
    8    6    5    3        0.0117321619
    8    6    6    3        0.0219847111
    8    6    7    3        0.0018016397
    8    6    8    3       -0.0000026923
    8    6    4    4       -0.0000091886
    8    6    5    4        0.0000014644
    8    6    6    4       -0.0000013017
    8    6    7    4        0.0000002571
    8    6    8    4        0.0065570642
    8    6    5    5       -0.0000058317
    8    6    6    5       -0.0000017264
    8    6    7    5        0.0000015213
    8    6    8    5        0.0025973639
    8    6    6    6       -0.0000066869
    8    6    7    6       -0.0000019379
    8    6    8    6        0.0359101732
    8    6    7    7       -0.0000077805
    7    7    1    1        1.0672686533
    7    7    2    1        0.0159913623
    7    7    3    1       -0.0000002196
    7    7    4    1       -0.0047149285
    7    7    5    1       -0.0051876901
    7    7    6    1       -0.0088636823
    7    7    7    1        0.0067082068
    7    7    2    2        0.6606873525
    7    7    3    2        0.0000040451
    7    7    4    2        0.0311325618
    7    7    5    2       -0.0239652900
    7    7    6    2        0.0120622312
    7    7    7    2        0.0167069881
    7    7    3    3        0.6369887766
    7    7    4    3        0.0000034007
    7    7    5    3       -0.0000000215
    7    7    6    3        0.0000051176
    7    7    7    3        0.0000049636
    7    7    4    4        0.6621854604
    7    7    5    4       -0.0465030582
    7    7    6    4        0.1292285406
    7    7    7    4        0.0507623939
    7    7    5    5        0.6377532380
    7    7    6    5        0.0848713555
    7    7    7    5       -0.1465540118
    7    7    6    6        0.6343199532
    7    7    7    6        0.0357189334
    7    7    7    7        0.7253793780
    8    7    1    1       -0.0000024643
    8    7    2    1       -0.0000002262
    8    7    3    1        0.0026429646
    8    7    4    1        0.0000001332
    8    7    5    1       -0.0000010024
    8    7    6    1       -0.0000005698
    8    7    7    1        0.0000016151
    8    7    8    1        0.0037970983
    8    7    2    2       -0.0000015094
    8    7    3    2        0.0098868707
    8    7    4    2       -0.0000010926
    8    7    5    2       -0.0000028752
    8    7    6    2       -0.0000014771
    8    7    7    2        0.0000035345
    8    7    8    2        0.0035953719
    8    7    3    3        0.0000004729
    8    7    4    3        0.0130391571
    8    7    5    3       -0.0197903915
    8    7    6    3        0.0018083320
    8    7    7    3        0.0158061521
    8    7    8    3       -0.0000001855
    8    7    4    4       -0.0000032622
    8    7    5    4       -0.0000013399
    8    7    6    4        0.0000006943
    8    7    7    4        0.0000013550
    8    7    8    4        0.0027621431
    8    7    5    5       -0.0000027397
    8    7    6    5       -0.0000003483
    8    7    7    5       -0.0000013947
    8    7    8    5       -0.0048316000
    8    7    6    6       -0.0000039373
    8    7    7    6        0.0000004819
    8    7    8    6        0.0034380749
    8    7    7    7       -0.0000019912
    8    7    8    7        0.0244473976
    8    8    1    1        1.0024669469
    8    8    2    1        0.0139105323
    8    8    3    1        0.0000010186
    8    8    4    1       -0.0067350466
    8    8    5    1       -0.0011652846
    8    8    6    1       -0.0096471257
    8    8    7    1       -0.0026359085
    8    8    8    1        0.0000021085
    8    8    2    2        0.6382890994
    8    8    3    2        0.0000094022
    8    8    4    2        0.0071879663
    8    8    5    2        0.0012658544
    8    8    6    2        0.0140334635
    8    8    7    2        0.0037688511
    8    8    8    2        0.0000009137
    8    8    3    3        0.6580343561
    8    8    4    3        0.0000040220
    8    8    5    3       -0.0000001775
    8    8    6    3        0.0000015858
    8    8    7    3        0.0000004112
    8    8    8    3        0.1721155567
    8    8    4    4        0.5710439896
    8    8    5    4        0.0028885334
    8    8    6    4        0.1377199310
    8    8    7    4        0.0649756919
    8    8    8    4       -0.0000024457
    8    8    5    5        0.5529034924
    8    8    6    5        0.0652397781
    8    8    7    5       -0.1387259379
    8    8    8    5       -0.0000012067
    8    8    6    6        0.5736420751
    8    8    7    6       -0.0024234819
    8    8    8    6       -0.0000034674
    8    8    7    7        0.5829251869
    8    8    8    7        0.0000000024
    8    8    8    8        0.6079897828
 end_two_electron_integrals
 enrep_tce =    8.9868709425642628     
  EHF(A)             =       -76.02288820
  EHF(total)         =       -76.02288820
  Shift (HFtot-HFA)  =         0.00000000
 Cpu & wall time / sec            0.1            0.1
 T1-number-of-tasks                   15

 t1 file size   =               15
 t1 file name   = ./H2O.t1
 t1 file handle =       -998
 T2-number-of-boxes                  315

 t2 file size   =              315
 t2 file name   = ./H2O.t2
 t2 file handle =       -996
CCSD iterations
 ---------------------------------------------------------
 Iter          Residuum       Correlation     Cpu    Wall 
 ---------------------------------------------------------
NEW TASK SCHEDULING
CCSD_T1_NTS --- OK
CCSD_T2_NTS --- OK
    1   0.7830890764716  -0.2302555260249     2.4     3.3
    2   1.3461037997785   0.1429678424402     2.6     3.5
    3   2.3512528718870  -0.4959131226664     2.6     3.4
    4   4.2450713842833   0.6046316499980     2.4     3.3
    5   7.3417199444400  -1.3702578983183     2.4     3.3
 MICROCYCLE DIIS UPDATE:                    5                    5
    6   0.0160236910120  -0.0893080632677     2.7     3.3
    7   0.0147104388504  -0.0916502796326     2.5     3.3
    8   0.0179776269952  -0.0890450680995     2.4     3.3
    9   0.0271094593131  -0.0920000954581     2.5     3.3
   10   0.0503344304983  -0.0870554198210     2.5     3.3
 MICROCYCLE DIIS UPDATE:                   10                    5
   11   0.0002447870844  -0.0904790395352     2.4     3.3
   12   0.0003530181899  -0.0905068065816     2.4     3.3
   13   0.0006885349919  -0.0904576260532     2.3     3.3
   14   0.0014394053560  -0.0905440029027     2.5     3.3
   15   0.0030609533782  -0.0903917568024     2.4     3.3
 MICROCYCLE DIIS UPDATE:                   15                    5
   16   0.0000063583071  -0.0904891066852     2.6     3.3
   17   0.0000041612578  -0.0904889132767     2.2     3.3
   18   0.0000068270692  -0.0904893847352     2.4     3.3
   19   0.0000131041059  -0.0904884842963     2.4     3.3
   20   0.0000270295651  -0.0904900744140     2.4     3.3
 MICROCYCLE DIIS UPDATE:                   20                    5
   21   0.0000001802677  -0.0904890538657     2.4     3.3
   22   0.0000002531899  -0.0904890951073     2.3     3.3
   23   0.0000004663311  -0.0904890298188     2.4     3.3
   24   0.0000009415691  -0.0904891365562     2.3     3.3
   25   0.0000019683416  -0.0904889576027     2.4     3.3
 MICROCYCLE DIIS UPDATE:                   25                    5
   26   0.0000000051262  -0.0904890701598     2.4     3.3
 -----------------------------------------------------------------
 Iterations converged
 CCSD correlation energy / hartree =        -0.090489070159771
 CCSD total energy / hartree       =       -76.113377272430910

 Singles contributions

 Doubles contributions
     6a   (alpha)     7a   (alpha) ---     4a   (alpha)     5a   (alpha)        0.0222808518
     6a   (alpha)     8a   (alpha) ---     3a   (alpha)     4a   (alpha)        0.0245229512
     6a   (alpha)     6a   (beta ) ---     4a   (alpha)     4a   (beta )       -0.0581328151
     6a   (alpha)     6a   (beta ) ---     4a   (alpha)     5a   (beta )       -0.0254476532
     6a   (alpha)     6a   (beta ) ---     5a   (alpha)     4a   (beta )       -0.0254476532
     6a   (alpha)     6a   (beta ) ---     5a   (alpha)     5a   (beta )       -0.0389251199
     6a   (alpha)     7a   (beta ) ---     4a   (alpha)     4a   (beta )       -0.0236080552
     6a   (alpha)     7a   (beta ) ---     4a   (alpha)     5a   (beta )        0.0398605282
     6a   (alpha)     7a   (beta ) ---     5a   (alpha)     5a   (beta )        0.0216436697
     6a   (alpha)     8a   (beta ) ---     4a   (alpha)     3a   (beta )       -0.0342851447
     7a   (alpha)     8a   (alpha) ---     3a   (alpha)     5a   (alpha)       -0.0262134098
     7a   (alpha)     6a   (beta ) ---     4a   (alpha)     4a   (beta )       -0.0236080552
     7a   (alpha)     6a   (beta ) ---     5a   (alpha)     4a   (beta )        0.0398605282
     7a   (alpha)     6a   (beta ) ---     5a   (alpha)     5a   (beta )        0.0216436697
     7a   (alpha)     7a   (beta ) ---     4a   (alpha)     4a   (beta )       -0.0313439485
     7a   (alpha)     7a   (beta ) ---     4a   (alpha)     5a   (beta )        0.0263219972
     7a   (alpha)     7a   (beta ) ---     5a   (alpha)     4a   (beta )        0.0263219972
     7a   (alpha)     7a   (beta ) ---     5a   (alpha)     5a   (beta )       -0.0574768065
     7a   (alpha)     8a   (beta ) ---     5a   (alpha)     3a   (beta )        0.0348199581
     8a   (alpha)     6a   (beta ) ---     3a   (alpha)     4a   (beta )       -0.0342851447
     8a   (alpha)     7a   (beta ) ---     3a   (alpha)     5a   (beta )        0.0348199581
     8a   (alpha)     8a   (beta ) ---     3a   (alpha)     3a   (beta )       -0.0538299032
 Ground state specification:
 exp(T)|Ref>~(1+T)|Ref>
 ------- a(p)+/a(q) strings ----------

 singles norm

 doubles norm

 Reference string
   1.0000000000000000      :(1a)+ (2a)+ (3a)+ (4a)+ (5a)+ (1b)+ (2b)+ (3b)+ (4b)+ (5b)+ |0>

 Singles strings

 Doubles strings
 -------------------------------------

 Parallel integral file used       1 records with       0 large values


 Task  times  cpu:       63.7s     wall:       86.8s


                                NWChem Input Module
                                -------------------


 Summary of allocated global arrays
-----------------------------------
  No active global arrays


MA_summarize_allocated_blocks: starting scan ...
MA_summarize_allocated_blocks: scan completed: 0 heap blocks, 0 stack blocks
MA usage statistics:

	allocation statistics:
					      heap	     stack
					      ----	     -----
	current number of blocks	         0	         0
	maximum number of blocks	        18	        42
	current total bytes		         0	         0
	maximum total bytes		   2175760	  16034616
	maximum total K-bytes		      2176	     16035
	maximum total M-bytes		         3	        17


                                     CITATION
                                     --------
                Please cite the following reference when publishing
                           results obtained with NWChem:

          E. Apra, E. J. Bylaska, W. A. de Jong, N. Govind, K. Kowalski,
       T. P. Straatsma, M. Valiev, H. J. J. van Dam, Y. Alexeev, J. Anchell,
       V. Anisimov, F. W. Aquino, R. Atta-Fynn, J. Autschbach, N. P. Bauman,
     J. C. Becca, D. E. Bernholdt, K. Bhaskaran-Nair, S. Bogatko, P. Borowski,
         J. Boschen, J. Brabec, A. Bruner, E. Cauet, Y. Chen, G. N. Chuev,
      C. J. Cramer, J. Daily, M. J. O. Deegan, T. H. Dunning Jr., M. Dupuis,
   K. G. Dyall, G. I. Fann, S. A. Fischer, A. Fonari, H. Fruchtl, L. Gagliardi,
      J. Garza, N. Gawande, S. Ghosh, K. Glaesemann, A. W. Gotz, J. Hammond,
       V. Helms, E. D. Hermes, K. Hirao, S. Hirata, M. Jacquelin, L. Jensen,
   B. G. Johnson, H. Jonsson, R. A. Kendall, M. Klemm, R. Kobayashi, V. Konkov,
      S. Krishnamoorthy, M. Krishnan, Z. Lin, R. D. Lins, R. J. Littlefield,
      A. J. Logsdail, K. Lopata, W. Ma, A. V. Marenich, J. Martin del Campo,
   D. Mejia-Rodriguez, J. E. Moore, J. M. Mullin, T. Nakajima, D. R. Nascimento,
    J. A. Nichols, P. J. Nichols, J. Nieplocha, A. Otero-de-la-Roza, B. Palmer,
    A. Panyala, T. Pirojsirikul, B. Peng, R. Peverati, J. Pittner, L. Pollack,
   R. M. Richard, P. Sadayappan, G. C. Schatz, W. A. Shelton, D. W. Silverstein,
   D. M. A. Smith, T. A. Soares, D. Song, M. Swart, H. L. Taylor, G. S. Thomas,
            V. Tipparaju, D. G. Truhlar, K. Tsemekhman, T. Van Voorhis,
      A. Vazquez-Mayagoitia, P. Verma, O. Villa, A. Vishnu, K. D. Vogiatzis,
        D. Wang, J. H. Weare, M. J. Williamson, T. L. Windus, K. Wolinski,
        A. T. Wong, Q. Wu, C. Yang, Q. Yu, M. Zacharias, Z. Zhang, Y. Zhao,
                                and R. J. Harrison
                        "NWChem: Past, present, and future
                         J. Chem. Phys. 152, 184102 (2020)
                               doi:10.1063/5.0004997

                                      AUTHORS
                                      -------
  E. Apra, E. J. Bylaska, N. Govind, K. Kowalski, M. Valiev, D. Mejia-Rodriguez,
       A. Kunitsa, N. P. Bauman, A. Panyala, W. A. de Jong, T. P. Straatsma,
        H. J. J. van Dam, D. Wang, T. L. Windus, J. Hammond, J. Autschbach,
    K. Bhaskaran-Nair, J. Brabec, K. Lopata, S. A. Fischer, S. Krishnamoorthy,
     M. Jacquelin, W. Ma, M. Klemm, O. Villa, Y. Chen, V. Anisimov, F. Aquino,
    S. Hirata, M. T. Hackler, Eric Hermes, L. Jensen, J. E. Moore, J. C. Becca,
      V. Konjkov, T. Risthaus, M. Malagoli, A. Marenich, A. Otero-de-la-Roza,
        J. Mullin, P. Nichols, R. Peverati, J. Pittner, Y. Zhao, P.-D. Fan,
        A. Fonari, M. J. Williamson, R. J. Harrison, J. R. Rehr, M. Dupuis,
     D. Silverstein, D. M. A. Smith, J. Nieplocha, V. Tipparaju, M. Krishnan,
     B. E. Van Kuiken, A. Vazquez-Mayagoitia, M. Swart, Q. Wu, T. Van Voorhis,
     A. A. Auer, M. Nooijen, L. D. Crosby, E. Brown, G. Cisneros, G. I. Fann,
   H. Fruchtl, J. Garza, K. Hirao, R. A. Kendall, J. A. Nichols, K. Tsemekhman,
    K. Wolinski, J. Anchell, D. E. Bernholdt, P. Borowski, T. Clark, D. Clerc,
   H. Dachsel, M. J. O. Deegan, K. Dyall, D. Elwood, E. Glendening, M. Gutowski,
   A. C. Hess, J. Jaffe, B. G. Johnson, J. Ju, R. Kobayashi, R. Kutteh, Z. Lin,
   R. Littlefield, X. Long, B. Meng, T. Nakajima, S. Niu, L. Pollack, M. Rosing,
   K. Glaesemann, G. Sandrone, M. Stave, H. Taylor, G. Thomas, J. H. van Lenthe,
                               A. T. Wong, Z. Zhang.

 Total times  cpu:      140.1s     wall:      239.0s
