 argument  1 = input.nw
  NWChem w/ OpenMP: maximum threads =    1



============================== echo of input deck ==============================
 echo
 start H2O
 title "H2O"

 memory total 24 gb

 geometry units bohr
 symmetry c1
        O  0.00000000  0.00000000  0.00000000
        H  0.00000000  1.55771525  0.00000000
        H  1.72558000 -0.64860000  0.00000000
 end

 basis spherical
   * library cc-pVTZ
 end

 mcscf
   active  8
   actelec 10
   multiplicity 1
   maxiter 40
   vectors input h2o.mos
   vectors output h2o.mos
 end

 task mcscf

 scf
   vectors input h2o.mos
   vectors output h2o-trash.mos
   noscf
 end

 tce
   2eorb
   2emet 13
   ccsd
 end

 set tce:print_integrals T
 set tce:qorb 8
 set tce:qela 5
 set tce:qelb 5

# set tce:qducc T
# set tce:nactv 3
# set tce:nonhf T
# set tce:ducc_model 3

 set tce:printtol 0.02

 task tce
================================================================================


                                         
                                         


             Northwest Computational Chemistry Package (NWChem) 7.0.1
             --------------------------------------------------------


                    Environmental Molecular Sciences Laboratory
                       Pacific Northwest National Laboratory
                                Richland, WA 99352

                              Copyright (c) 1994-2020
                       Pacific Northwest National Laboratory
                            Battelle Memorial Institute

             NWChem is an open-source computational chemistry package
                        distributed under the terms of the
                      Educational Community License (ECL) 2.0
             A copy of the license is included with this distribution
                              in the LICENSE.TXT file

                                  ACKNOWLEDGMENT
                                  --------------

            This software and its documentation were developed at the
            EMSL at Pacific Northwest National Laboratory, a multiprogram
            national laboratory, operated for the U.S. Department of Energy
            by Battelle under Contract Number DE-AC05-76RL01830. Support
            for this work was provided by the Department of Energy Office
            of Biological and Environmental Research, Office of Basic
            Energy Sciences, and the Office of Advanced Scientific Computing.


           Job information
           ---------------

    hostname        = WE46210
    program         = /home/baum612/code/nwchem/bin/LINUX64/nwchem
    date            = Tue Feb 20 14:14:00 2024

    compiled        = Fri_Feb_16_11:09:52_2024
    source          = /home/baum612/code/nwchem
    nwchem branch   = 7.0.0
    nwchem revision = nwchem_on_git-4191-g39d87d64de
    ga revision     = 5.8.1
    use scalapack   = F
    input           = input.nw
    prefix          = H2O.
    data base       = ./H2O.db
    status          = startup
    nproc           =        1
    time left       =     -1s



           Memory information
           ------------------

    heap     =  805306366 doubles =   6144.0 Mbytes
    stack    =  805306363 doubles =   6144.0 Mbytes
    global   = 1610612736 doubles =  12288.0 Mbytes (distinct from heap & stack)
    total    = 3221225465 doubles =  24576.0 Mbytes
    verify   = yes
    hardfail = no 


           Directory information
           ---------------------

  0 permanent = .
  0 scratch   = .




                                NWChem Input Module
                                -------------------


                                        H2O
                                        ---
 Turning off AUTOSYM since
 SYMMETRY directive was detected!


          ------
          auto-z
          ------
  no constraints, skipping    0.0000000000000000     
  no constraints, skipping    0.0000000000000000     


                             Geometry "geometry" -> ""
                             -------------------------

 Output coordinates in a.u. (scale by  1.000000000 to convert to a.u.)

  No.       Tag          Charge          X              Y              Z
 ---- ---------------- ---------- -------------- -------------- --------------
    1 O                    8.0000    -0.17255800    -0.09091153     0.00000000
    2 H                    1.0000    -0.17255800     1.46680373     0.00000000
    3 H                    1.0000     1.55302200    -0.73951153     0.00000000

      Atomic Mass 
      ----------- 

      O                 15.994910
      H                  1.007825


 Effective nuclear repulsion energy (a.u.)       9.8324344582

            Nuclear Dipole moment (a.u.) 
            ----------------------------
        X                 Y               Z
 ---------------- ---------------- ----------------
    -0.0000000000     0.0000000000     0.0000000000



                                Z-matrix (autoz)
                                -------- 

 Units are Angstrom for bonds and degrees for angles

      Type          Name      I     J     K     L     M      Value
      ----------- --------  ----- ----- ----- ----- ----- ----------
    1 Stretch                  1     2                       0.82431
    2 Stretch                  1     3                       0.97551
    3 Bend                     2     1     3               110.59992


            XYZ format geometry
            -------------------
     3
 geometry
 O                    -0.09131377    -0.04810831     0.00000000
 H                    -0.09131377     0.77619916     0.00000000
 H                     0.82182391    -0.39133267     0.00000000

 ==============================================================================
                                internuclear distances
 ------------------------------------------------------------------------------
       center one      |      center two      | atomic units |       a.u.
 ------------------------------------------------------------------------------
    2 H                |   1 O                |     1.55772  |     1.55772
    3 H                |   1 O                |     1.84345  |     1.84345
 ------------------------------------------------------------------------------
                         number of included internuclear distances:          2
 ==============================================================================



 ==============================================================================
                                 internuclear angles
 ------------------------------------------------------------------------------
        center 1       |       center 2       |       center 3       |  degrees
 ------------------------------------------------------------------------------
    2 H                |   1 O                |   3 H                |   110.60
 ------------------------------------------------------------------------------
                            number of included internuclear angles:          1
 ==============================================================================





 Summary of "ao basis" -> "" (spherical)
 ------------------------------------------------------------------------------
       Tag                 Description            Shells   Functions and Types
 ---------------- ------------------------------  ------  ---------------------
 *                          cc-pVTZ                   on all atoms 


                      Basis "ao basis" -> "ao basis" (spherical)
                      -----
  O (Oxygen)
  ----------
            Exponent  Coefficients 
       -------------- ---------------------------------------------------------
  1 S  1.53300000E+04  0.000508
  1 S  2.29900000E+03  0.003929
  1 S  5.22400000E+02  0.020243
  1 S  1.47300000E+02  0.079181
  1 S  4.75500000E+01  0.230687
  1 S  1.67600000E+01  0.433118
  1 S  6.20700000E+00  0.350260
  1 S  6.88200000E-01 -0.008154

  2 S  1.53300000E+04 -0.000115
  2 S  2.29900000E+03 -0.000895
  2 S  5.22400000E+02 -0.004636
  2 S  1.47300000E+02 -0.018724
  2 S  4.75500000E+01 -0.058463
  2 S  1.67600000E+01 -0.136463
  2 S  6.20700000E+00 -0.175740
  2 S  6.88200000E-01  0.603418

  3 S  1.75200000E+00  1.000000

  4 S  2.38400000E-01  1.000000

  5 P  3.44600000E+01  0.015928
  5 P  7.74900000E+00  0.099740
  5 P  2.28000000E+00  0.310492

  6 P  7.15600000E-01  1.000000

  7 P  2.14000000E-01  1.000000

  8 D  2.31400000E+00  1.000000

  9 D  6.45000000E-01  1.000000

 10 F  1.42800000E+00  1.000000

  H (Hydrogen)
  ------------
            Exponent  Coefficients 
       -------------- ---------------------------------------------------------
  1 S  3.38700000E+01  0.006068
  1 S  5.09500000E+00  0.045308
  1 S  1.15900000E+00  0.202822

  2 S  3.25800000E-01  1.000000

  3 S  1.02700000E-01  1.000000

  4 P  1.40700000E+00  1.000000

  5 P  3.88000000E-01  1.000000

  6 D  1.05700000E+00  1.000000



 Summary of "ao basis" -> "ao basis" (spherical)
 ------------------------------------------------------------------------------
       Tag                 Description            Shells   Functions and Types
 ---------------- ------------------------------  ------  ---------------------
 O                          cc-pVTZ                 10       30   4s3p2d1f
 H                          cc-pVTZ                  6       14   3s2p1d



                            NWChem Direct MCSCF Module
                            --------------------------


                                        H2O


     -----------------------------------
       Basis functions:             58
       Inactive shells:              0
       Active shells:                8
       Active electrons:            10
       Symmetry:                    a       
       Multiplicity:                 1
       Orbital rotations:          400
     -----------------------------------

     -----------------------------------
       E2 extrapolation:             F
       Conjugacy:                    T
       Micro CI relax:               T
       Canonical orbitals:           T
       Maximum iterations:          40
       Converge threshold:    1.00E-04
       Conjugacy resets:            20
       Initial levelshift:        0.10
     -----------------------------------

 Loading old vectors from job with title :

H2O


   input molecular orbitals = ./h2o.mos
  output molecular orbtials = ./h2o.mos

       No. of determinants:          3136


  Starting Orbital Energies
   -20.531283    -1.386673    -0.778117    -0.592995    -0.530906    -0.025609
    -0.020031    -0.015969     0.276139     0.334408     0.619484     0.653430
     0.809775     0.857359     0.974038     1.073812     1.210887     1.369403
     1.559270     1.994508     2.009750     2.099860     2.143782     2.186291
     2.630498     2.898621     3.400379     3.524599     3.543506     3.607898
     3.680424     3.865896     3.954695     3.968298     3.989966     4.036020
     4.217638     4.432280     4.508088     4.601136     4.714009     4.882278
     5.324782     5.467374     5.642445     6.131359     6.649543     6.859736
     6.913288     7.008444     7.085354     7.173385     7.496910     7.619315
     7.678444     8.019101     8.475562    13.972271

  Orbital Symmetry Irreps
a    a    a    a    a    a    a    a    a    a    a    a    a    a    a   
a    a    a    a    a    a    a    a    a    a    a    a    a    a    a   
a    a    a    a    a    a    a    a    a    a    a    a    a    a    a   
a    a    a    a    a    a    a    a    a    a    a    a    a   

 Integral file          = ./H2O.aoints.0
 Record size in doubles =  65536        No. of integs per rec  =  43688
 Max. records in memory =     49        Max. records in file   = 252444
 No. of bits per label  =      8        No. of bits per value  =     64


 #quartets = 3.213D+04 #integrals = 6.608D+05 #direct =  0.0% #cached =100.0%




          %%%%% MacroIteration   1 %%%%%


          Number of sigma calls:       15
                       o<<<<< (aa):             0.00
                       o<<<<< (bb):             0.01
                       o<<<<< (ab):             0.14
                       o<<<<< (total)           0.16
                       o<<<<< (aa) ff           0.00
                       o<<<<< (aa) gop          0.00
                       o<<<<< (aa) dot          0.00
                       o<<<<< (ab) str          0.00
                       o<<<<< (ab) gath         0.00
                       o<<<<< (ab) dotab        0.00
                       o<<<<< (ab) scat         0.00
                       o<<<<< (ab) sync         0.00
                       o<<<<< Density           0.00
                       o<<<<< Density one       0.00
                       o<<<<< Density two       0.00
                       o<<<<< Density ab        0.00
                       o<<<<< Spin adapt        0.64
                       o<<<<< Symm adapt        0.00

                       o<<<<< (ab) max sync:      0.00

           >>>| Valence CI:            -85.955670080230
           >>>| MCSCF energy:          -76.123235622016
           >>>| Gradient norm:          0.155824344D-01

                              ----- Line search ------

        step       energy         lsg     num-lsg   num-lsh   lsrat    time
      ------- ---------------- --------- --------- --------- ------- --------
       0.0000     -76.12323562 -1.84D-05  0.00D+00  0.00D+00 0.0D+00      2.2

          Number of sigma calls:       14
                       o<<<<< (aa):             0.01
                       o<<<<< (bb):             0.00
                       o<<<<< (ab):             0.14
                       o<<<<< (total)           0.15
                       o<<<<< (aa) ff           0.00
                       o<<<<< (aa) gop          0.00
                       o<<<<< (aa) dot          0.00
                       o<<<<< (ab) str          0.00
                       o<<<<< (ab) gath         0.00
                       o<<<<< (ab) dotab        0.00
                       o<<<<< (ab) scat         0.00
                       o<<<<< (ab) sync         0.00
                       o<<<<< Density           0.02
                       o<<<<< Density one       0.00
                       o<<<<< Density two       0.01
                       o<<<<< Density ab        0.01
                       o<<<<< Spin adapt        0.59
                       o<<<<< Symm adapt        0.00

                       o<<<<< (ab) max sync:      0.00
       1.0000     -76.12324510 -5.56D-07 -5.57D-07  1.79D-05 3.0D-02      3.1
     --- Orbitals canonicalized ---



          %%%%% MacroIteration   2 %%%%%


          Number of sigma calls:       12
                       o<<<<< (aa):             0.00
                       o<<<<< (bb):             0.00
                       o<<<<< (ab):             0.11
                       o<<<<< (total)           0.11
                       o<<<<< (aa) ff           0.00
                       o<<<<< (aa) gop          0.00
                       o<<<<< (aa) dot          0.00
                       o<<<<< (ab) str          0.00
                       o<<<<< (ab) gath         0.00
                       o<<<<< (ab) dotab        0.00
                       o<<<<< (ab) scat         0.00
                       o<<<<< (ab) sync         0.00
                       o<<<<< Density           0.01
                       o<<<<< Density one       0.00
                       o<<<<< Density two       0.00
                       o<<<<< Density ab        0.01
                       o<<<<< Spin adapt        0.58
                       o<<<<< Symm adapt        0.00

                       o<<<<< (ab) max sync:      0.00

           >>>| Valence CI:            -85.955679562113
           >>>| MCSCF energy:          -76.123245103900
           >>>| Gradient norm:          0.100420850D-02
     --- Warning:    2 Hessian diagonals < 0.05 ---
     --- Conjugacy reset ---

                              ----- Line search ------

        step       energy         lsg     num-lsg   num-lsh   lsrat    time
      ------- ---------------- --------- --------- --------- ------- --------
       0.0000     -76.12324510 -2.00D-07  0.00D+00  0.00D+00 0.0D+00      4.2

          Number of sigma calls:       10
                       o<<<<< (aa):             0.00
                       o<<<<< (bb):             0.00
                       o<<<<< (ab):             0.11
                       o<<<<< (total)           0.11
                       o<<<<< (aa) ff           0.00
                       o<<<<< (aa) gop          0.00
                       o<<<<< (aa) dot          0.00
                       o<<<<< (ab) str          0.00
                       o<<<<< (ab) gath         0.00
                       o<<<<< (ab) dotab        0.00
                       o<<<<< (ab) scat         0.00
                       o<<<<< (ab) sync         0.00
                       o<<<<< Density           0.03
                       o<<<<< Density one       0.01
                       o<<<<< Density two       0.00
                       o<<<<< Density ab        0.02
                       o<<<<< Spin adapt        0.40
                       o<<<<< Symm adapt        0.00

                       o<<<<< (ab) max sync:      0.00
       1.0000     -76.12324525 -8.44D-08 -8.44D-08  1.15D-07 4.2D-01      4.9

          Number of sigma calls:       10
                       o<<<<< (aa):             0.01
                       o<<<<< (bb):             0.01
                       o<<<<< (ab):             0.10
                       o<<<<< (total)           0.11
                       o<<<<< (aa) ff           0.00
                       o<<<<< (aa) gop          0.00
                       o<<<<< (aa) dot          0.00
                       o<<<<< (ab) str          0.00
                       o<<<<< (ab) gath         0.00
                       o<<<<< (ab) dotab        0.00
                       o<<<<< (ab) scat         0.00
                       o<<<<< (ab) sync         0.00
                       o<<<<< Density           0.02
                       o<<<<< Density one       0.01
                       o<<<<< Density two       0.00
                       o<<<<< Density ab        0.01
                       o<<<<< Spin adapt        0.46
                       o<<<<< Symm adapt        0.00

                       o<<<<< (ab) max sync:      0.00
       1.7328     -76.12324528 -1.44D-10 -1.33D-10  1.15D-07 7.2D-04      5.7



          %%%%% MacroIteration   3 %%%%%


          Number of sigma calls:        1
                       o<<<<< (aa):             0.00
                       o<<<<< (bb):             0.00
                       o<<<<< (ab):             0.01
                       o<<<<< (total)           0.01
                       o<<<<< (aa) ff           0.00
                       o<<<<< (aa) gop          0.00
                       o<<<<< (aa) dot          0.00
                       o<<<<< (ab) str          0.00
                       o<<<<< (ab) gath         0.00
                       o<<<<< (ab) dotab        0.00
                       o<<<<< (ab) scat         0.00
                       o<<<<< (ab) sync         0.00
                       o<<<<< Density           0.01
                       o<<<<< Density one       0.00
                       o<<<<< Density two       0.00
                       o<<<<< Density ab        0.01
                       o<<<<< Spin adapt        0.00
                       o<<<<< Symm adapt        0.00

                       o<<<<< (ab) max sync:      0.00

           >>>| Valence CI:            -85.955679735122
           >>>| MCSCF energy:          -76.123245276908
           >>>| Gradient norm:          0.300135314D-03
     --- Warning:    2 Hessian diagonals < 0.05 ---

                              ----- Line search ------

        step       energy         lsg     num-lsg   num-lsh   lsrat    time
      ------- ---------------- --------- --------- --------- ------- --------
       0.0000     -76.12324528 -3.71D-08  0.00D+00  0.00D+00 0.0D+00      6.1

          Number of sigma calls:        9
                       o<<<<< (aa):             0.00
                       o<<<<< (bb):             0.01
                       o<<<<< (ab):             0.09
                       o<<<<< (total)           0.10
                       o<<<<< (aa) ff           0.00
                       o<<<<< (aa) gop          0.00
                       o<<<<< (aa) dot          0.00
                       o<<<<< (ab) str          0.00
                       o<<<<< (ab) gath         0.00
                       o<<<<< (ab) dotab        0.00
                       o<<<<< (ab) scat         0.00
                       o<<<<< (ab) sync         0.00
                       o<<<<< Density           0.00
                       o<<<<< Density one       0.00
                       o<<<<< Density two       0.00
                       o<<<<< Density ab        0.00
                       o<<<<< Spin adapt        0.39
                       o<<<<< Symm adapt        0.00

                       o<<<<< (ab) max sync:      0.00
       1.0000     -76.12324531 -2.14D-08 -2.14D-08  1.57D-08 5.8D-01      6.8

          Number of sigma calls:       10
                       o<<<<< (aa):             0.00
                       o<<<<< (bb):             0.00
                       o<<<<< (ab):             0.09
                       o<<<<< (total)           0.10
                       o<<<<< (aa) ff           0.00
                       o<<<<< (aa) gop          0.00
                       o<<<<< (aa) dot          0.00
                       o<<<<< (ab) str          0.00
                       o<<<<< (ab) gath         0.00
                       o<<<<< (ab) dotab        0.00
                       o<<<<< (ab) scat         0.00
                       o<<<<< (ab) sync         0.00
                       o<<<<< Density           0.01
                       o<<<<< Density one       0.01
                       o<<<<< Density two       0.00
                       o<<<<< Density ab        0.00
                       o<<<<< Spin adapt        0.55
                       o<<<<< Symm adapt        0.00

                       o<<<<< (ab) max sync:      0.00
       2.3642     -76.12324532 -1.33D-11 -1.20D-11  1.57D-08 3.6D-04      7.7



          %%%%% MacroIteration   4 %%%%%


          Number of sigma calls:        1
                       o<<<<< (aa):             0.00
                       o<<<<< (bb):             0.00
                       o<<<<< (ab):             0.01
                       o<<<<< (total)           0.01
                       o<<<<< (aa) ff           0.00
                       o<<<<< (aa) gop          0.00
                       o<<<<< (aa) dot          0.00
                       o<<<<< (ab) str          0.00
                       o<<<<< (ab) gath         0.00
                       o<<<<< (ab) dotab        0.00
                       o<<<<< (ab) scat         0.00
                       o<<<<< (ab) sync         0.00
                       o<<<<< Density           0.03
                       o<<<<< Density one       0.00
                       o<<<<< Density two       0.01
                       o<<<<< Density ab        0.02
                       o<<<<< Spin adapt        0.00
                       o<<<<< Symm adapt        0.00

                       o<<<<< (ab) max sync:      0.00

           >>>| Valence CI:            -85.955679779041
           >>>| MCSCF energy:          -76.123245320828
           >>>| Gradient norm:          0.303216289D-03
     --- Warning:    2 Hessian diagonals < 0.05 ---

                              ----- Line search ------

        step       energy         lsg     num-lsg   num-lsh   lsrat    time
      ------- ---------------- --------- --------- --------- ------- --------
       0.0000     -76.12324532 -2.28D-08  0.00D+00  0.00D+00 0.0D+00      8.0

          Number of sigma calls:       10
                       o<<<<< (aa):             0.00
                       o<<<<< (bb):             0.01
                       o<<<<< (ab):             0.10
                       o<<<<< (total)           0.11
                       o<<<<< (aa) ff           0.00
                       o<<<<< (aa) gop          0.00
                       o<<<<< (aa) dot          0.00
                       o<<<<< (ab) str          0.00
                       o<<<<< (ab) gath         0.00
                       o<<<<< (ab) dotab        0.00
                       o<<<<< (ab) scat         0.00
                       o<<<<< (ab) sync         0.00
                       o<<<<< Density           0.02
                       o<<<<< Density one       0.01
                       o<<<<< Density two       0.00
                       o<<<<< Density ab        0.01
                       o<<<<< Spin adapt        0.42
                       o<<<<< Symm adapt        0.00

                       o<<<<< (ab) max sync:      0.00
       1.0000     -76.12324534 -1.30D-08 -1.30D-08  9.77D-09 5.7D-01      8.7

          Number of sigma calls:       10
                       o<<<<< (aa):             0.00
                       o<<<<< (bb):             0.00
                       o<<<<< (ab):             0.09
                       o<<<<< (total)           0.09
                       o<<<<< (aa) ff           0.00
                       o<<<<< (aa) gop          0.00
                       o<<<<< (aa) dot          0.00
                       o<<<<< (ab) str          0.00
                       o<<<<< (ab) gath         0.00
                       o<<<<< (ab) dotab        0.00
                       o<<<<< (ab) scat         0.00
                       o<<<<< (ab) sync         0.00
                       o<<<<< Density           0.02
                       o<<<<< Density one       0.01
                       o<<<<< Density two       0.00
                       o<<<<< Density ab        0.01
                       o<<<<< Spin adapt        0.50
                       o<<<<< Symm adapt        0.00

                       o<<<<< (ab) max sync:      0.00
       2.3332     -76.12324535 -1.90D-11 -1.75D-11  9.75D-09 8.3D-04      9.6



          %%%%% MacroIteration   5 %%%%%


          Number of sigma calls:        1
                       o<<<<< (aa):             0.00
                       o<<<<< (bb):             0.00
                       o<<<<< (ab):             0.01
                       o<<<<< (total)           0.01
                       o<<<<< (aa) ff           0.00
                       o<<<<< (aa) gop          0.00
                       o<<<<< (aa) dot          0.00
                       o<<<<< (ab) str          0.00
                       o<<<<< (ab) gath         0.00
                       o<<<<< (ab) dotab        0.00
                       o<<<<< (ab) scat         0.00
                       o<<<<< (ab) sync         0.00
                       o<<<<< Density           0.02
                       o<<<<< Density one       0.01
                       o<<<<< Density two       0.00
                       o<<<<< Density ab        0.01
                       o<<<<< Spin adapt        0.00
                       o<<<<< Symm adapt        0.00

                       o<<<<< (ab) max sync:      0.00

           >>>| Valence CI:            -85.955679805634
           >>>| MCSCF energy:          -76.123245347420
           >>>| Gradient norm:          0.136872502D-03
     --- Warning:    2 Hessian diagonals < 0.05 ---

                              ----- Line search ------

        step       energy         lsg     num-lsg   num-lsh   lsrat    time
      ------- ---------------- --------- --------- --------- ------- --------
       0.0000     -76.12324535 -2.33D-09  0.00D+00  0.00D+00 0.0D+00      9.8

          Number of sigma calls:        8
                       o<<<<< (aa):             0.00
                       o<<<<< (bb):             0.00
                       o<<<<< (ab):             0.05
                       o<<<<< (total)           0.05
                       o<<<<< (aa) ff           0.00
                       o<<<<< (aa) gop          0.00
                       o<<<<< (aa) dot          0.00
                       o<<<<< (ab) str          0.00
                       o<<<<< (ab) gath         0.00
                       o<<<<< (ab) dotab        0.00
                       o<<<<< (ab) scat         0.00
                       o<<<<< (ab) sync         0.00
                       o<<<<< Density           0.02
                       o<<<<< Density one       0.01
                       o<<<<< Density two       0.00
                       o<<<<< Density ab        0.01
                       o<<<<< Spin adapt        0.39
                       o<<<<< Symm adapt        0.00

                       o<<<<< (ab) max sync:      0.00
       1.0000     -76.12324535 -6.38D-10 -6.38D-10  1.69D-09 2.7D-01     10.5

          Number of sigma calls:        7
                       o<<<<< (aa):             0.00
                       o<<<<< (bb):             0.01
                       o<<<<< (ab):             0.08
                       o<<<<< (total)           0.09
                       o<<<<< (aa) ff           0.00
                       o<<<<< (aa) gop          0.00
                       o<<<<< (aa) dot          0.00
                       o<<<<< (ab) str          0.00
                       o<<<<< (ab) gath         0.00
                       o<<<<< (ab) dotab        0.00
                       o<<<<< (ab) scat         0.00
                       o<<<<< (ab) sync         0.00
                       o<<<<< Density           0.03
                       o<<<<< Density one       0.01
                       o<<<<< Density two       0.00
                       o<<<<< Density ab        0.02
                       o<<<<< Spin adapt        0.44
                       o<<<<< Symm adapt        0.00

                       o<<<<< (ab) max sync:      0.00
       1.3774     -76.12324535 -7.23D-14  1.50D-12  1.69D-09 3.1D-05     11.3



          %%%%% MacroIteration   6 %%%%%


          Number of sigma calls:        1
                       o<<<<< (aa):             0.00
                       o<<<<< (bb):             0.00
                       o<<<<< (ab):             0.01
                       o<<<<< (total)           0.01
                       o<<<<< (aa) ff           0.00
                       o<<<<< (aa) gop          0.00
                       o<<<<< (aa) dot          0.00
                       o<<<<< (ab) str          0.00
                       o<<<<< (ab) gath         0.00
                       o<<<<< (ab) dotab        0.00
                       o<<<<< (ab) scat         0.00
                       o<<<<< (ab) sync         0.00
                       o<<<<< Density           0.02
                       o<<<<< Density one       0.01
                       o<<<<< Density two       0.00
                       o<<<<< Density ab        0.01
                       o<<<<< Spin adapt        0.00
                       o<<<<< Symm adapt        0.00

                       o<<<<< (ab) max sync:      0.00

           >>>| Valence CI:            -85.955679807237
           >>>| MCSCF energy:          -76.123245349023
           >>>| Gradient norm:          0.131966937D-04




     ==============================
            MCSCF Converged
     ==============================



          Canonical Eigenvalues

              1      
    1  -20.5308
    2   -1.3885
    3   -0.7796
    4   -0.5934
    5   -0.5312
    6   -0.0256
    7   -0.0199
    8   -0.0160
    9    0.2752
   10    0.3343
   11    0.6203
   12    0.6536
   13    0.8098
   14    0.8578
   15    0.9740
   16    1.0719
   17    1.2123
   18    1.3689
   19    1.5667
   20    1.9936
   21    2.0100
   22    2.1007
   23    2.1439
   24    2.1857
   25    2.6317
   26    2.8995
   27    3.4009
   28    3.5245
   29    3.5448
   30    3.6101
   31    3.6836
   32    3.8655
   33    3.9564
   34    3.9699
   35    3.9899
   36    4.0353
   37    4.2207
   38    4.4358
   39    4.5117
   40    4.6089
   41    4.7173
   42    4.8818
   43    5.3280
   44    5.4783
   45    5.6571
   46    6.1377
   47    6.6561
   48    6.8551
   49    6.9128
   50    7.0080
   51    7.0851
   52    7.1780
   53    7.4981
   54    7.6408
   55    7.7053
   56    8.0328
   57    8.4887
   58   14.0258


          Converged CI vector

   Index           Coefficient          Config. Occupation
         1          0.97924324          1  2  3  4  5  1  2  3  4  5
        22          0.06691116          1  2  3  4  5  1  2  3  4  8
         3          0.03319386          1  2  3  4  5  1  2  3  5  6
         8          0.02715353          1  2  3  4  5  1  2  3  5  7
         4          0.02612318          1  2  3  4  5  1  2  4  5  6
         9         -0.02942337          1  2  3  4  5  1  2  4  5  7
      1177          0.06691116          1  2  3  4  8  1  2  3  4  5
      1198         -0.05083537          1  2  3  4  8  1  2  3  4  8
      1179         -0.02170348          1  2  3  4  8  1  2  3  5  6
      1180         -0.02375612          1  2  3  4  8  1  2  4  5  6
      1185          0.02546509          1  2  3  4  8  1  2  4  5  7
       113          0.03319386          1  2  3  5  6  1  2  3  4  5
       134         -0.02170348          1  2  3  5  6  1  2  3  4  8
       115         -0.03478042          1  2  3  5  6  1  2  3  5  6
       116         -0.02922353          1  2  3  5  6  1  2  4  5  6
       393          0.02715353          1  2  3  5  7  1  2  3  4  5
       169          0.02612318          1  2  4  5  6  1  2  3  4  5
       190         -0.02375612          1  2  4  5  6  1  2  3  4  8
       171         -0.02922353          1  2  4  5  6  1  2  3  5  6
       172         -0.04127643          1  2  4  5  6  1  2  4  5  6
       173          0.02120091          1  2  4  5  6  1  3  4  5  6
       449         -0.02942337          1  2  4  5  7  1  2  3  4  5
       470          0.02546509          1  2  4  5  7  1  2  3  4  8
       457         -0.03476245          1  2  4  5  7  1  2  4  5  7
       228          0.02120091          1  3  4  5  6  1  2  4  5  6
       229         -0.02017376          1  3  4  5  6  1  3  4  5  6

          Number of sigma calls:        1
                       o<<<<< (aa):             0.00
                       o<<<<< (bb):             0.00
                       o<<<<< (ab):             0.01
                       o<<<<< (total)           0.01
                       o<<<<< (aa) ff           0.00
                       o<<<<< (aa) gop          0.00
                       o<<<<< (aa) dot          0.00
                       o<<<<< (ab) str          0.00
                       o<<<<< (ab) gath         0.00
                       o<<<<< (ab) dotab        0.00
                       o<<<<< (ab) scat         0.00
                       o<<<<< (ab) sync         0.00
                       o<<<<< Density           0.02
                       o<<<<< Density one       0.01
                       o<<<<< Density two       0.00
                       o<<<<< Density ab        0.01
                       o<<<<< Spin adapt        0.00
                       o<<<<< Symm adapt        0.00

                       o<<<<< (ab) max sync:      0.00



          Natural orbital occupation numbers

              1      
    1    2.0000
    2    1.9992
    3    1.9841
    4    1.9836
    5    1.9778
    6    0.0228
    7    0.0163
    8    0.0162


          Number of sigma calls:       15
                       o<<<<< (aa):             0.00
                       o<<<<< (bb):             0.01
                       o<<<<< (ab):             0.14
                       o<<<<< (total)           0.15
                       o<<<<< (aa) ff           0.00
                       o<<<<< (aa) gop          0.00
                       o<<<<< (aa) dot          0.00
                       o<<<<< (ab) str          0.00
                       o<<<<< (ab) gath         0.00
                       o<<<<< (ab) dotab        0.00
                       o<<<<< (ab) scat         0.00
                       o<<<<< (ab) sync         0.00
                       o<<<<< Density           0.03
                       o<<<<< Density one       0.01
                       o<<<<< Density two       0.00
                       o<<<<< Density ab        0.02
                       o<<<<< Spin adapt        0.69
                       o<<<<< Symm adapt        0.00

                       o<<<<< (ab) max sync:      0.00


       Final MCSCF results 
       ------------------- 

       Total MCSCF energy =    -76.123245349022
            Gradient norm =      1.3D-05

    CPU time for solution =     12.6s
   Wall time for solution =     21.6s



                        Analysis of MCSCF natural orbitals
                        ----------------------------------

 Vector    1  Occ=1.999987D+00  E=-2.053081D+01  Symmetry=a
              MO Center= -9.2D-02, -4.8D-02, -5.4D-10, r^2= 1.9D-02
   Bfn.  Coefficient  Atom+Function         Bfn.  Coefficient  Atom+Function  
  ----- ------------  ---------------      ----- ------------  ---------------
     1      0.969429  1 O  s          

 Vector    2  Occ=1.999151D+00  E=-1.388520D+00  Symmetry=a
              MO Center= -3.1D-01, -1.6D-01, -2.0D-07, r^2= 4.2D-01
   Bfn.  Coefficient  Atom+Function         Bfn.  Coefficient  Atom+Function  
  ----- ------------  ---------------      ----- ------------  ---------------
     2      0.503571  1 O  s                  4      0.374535  1 O  s          

 Vector    3  Occ=1.984085D+00  E=-7.795795D-01  Symmetry=a
              MO Center= -4.3D-02,  3.0D-01,  1.4D-07, r^2= 5.4D-01
   Bfn.  Coefficient  Atom+Function         Bfn.  Coefficient  Atom+Function  
  ----- ------------  ---------------      ----- ------------  ---------------
     9      0.330337  1 O  py                 6      0.297068  1 O  py         
    32      0.260117  2 H  s                 31      0.210642  2 H  s          
    12      0.170634  1 O  py         

 Vector    4  Occ=1.983567D+00  E=-5.933757D-01  Symmetry=a
              MO Center= -6.4D-02, -2.6D-02,  4.8D-08, r^2= 6.5D-01
   Bfn.  Coefficient  Atom+Function         Bfn.  Coefficient  Atom+Function  
  ----- ------------  ---------------      ----- ------------  ---------------
    10      0.429012  1 O  pz                13      0.382957  1 O  pz         
     7      0.358143  1 O  pz         

 Vector    5  Occ=1.977847D+00  E=-5.311852D-01  Symmetry=a
              MO Center=  3.5D-01, -1.7D-01,  2.6D-08, r^2= 5.8D-01
   Bfn.  Coefficient  Atom+Function         Bfn.  Coefficient  Atom+Function  
  ----- ------------  ---------------      ----- ------------  ---------------
     8      0.330413  1 O  px                 5      0.275302  1 O  px         
    46      0.263377  3 H  s                 11      0.189865  1 O  px         
    45      0.184588  3 H  s          

 Vector    6  Occ=2.284026D-02  E=-2.560978D-02  Symmetry=a
              MO Center=  5.0D-01, -2.1D-01,  5.5D-08, r^2= 6.1D-01
   Bfn.  Coefficient  Atom+Function         Bfn.  Coefficient  Atom+Function  
  ----- ------------  ---------------      ----- ------------  ---------------
    46      0.666084  3 H  s                  5     -0.529209  1 O  px         
     8     -0.421544  1 O  px                 2     -0.321265  1 O  s          
    45      0.301834  3 H  s                  3     -0.168951  1 O  s          
     4     -0.161095  1 O  s          

 Vector    7  Occ=1.630831D-02  E=-1.985657D-02  Symmetry=a
              MO Center= -1.3D-02,  4.6D-01, -6.1D-07, r^2= 6.5D-01
   Bfn.  Coefficient  Atom+Function         Bfn.  Coefficient  Atom+Function  
  ----- ------------  ---------------      ----- ------------  ---------------
    32      0.691032  2 H  s                  6     -0.608249  1 O  py         
     9     -0.363580  1 O  py                 4     -0.287548  1 O  s          
    31      0.287012  2 H  s                  2     -0.243441  1 O  s          
    12      0.162136  1 O  py                 3     -0.154019  1 O  s          

 Vector    8  Occ=1.621421D-02  E=-1.596469D-02  Symmetry=a
              MO Center= -2.2D-03,  5.5D-03,  8.0D-07, r^2= 1.1D+00
   Bfn.  Coefficient  Atom+Function         Bfn.  Coefficient  Atom+Function  
  ----- ------------  ---------------      ----- ------------  ---------------
    13      0.753010  1 O  pz                 7     -0.669121  1 O  pz         
    10     -0.283186  1 O  pz         

 Vector    9  Occ=0.000000D+00  E= 2.751788D-01  Symmetry=a
              MO Center=  5.5D-02,  4.2D-01, -1.4D-07, r^2= 4.6D+00
   Bfn.  Coefficient  Atom+Function         Bfn.  Coefficient  Atom+Function  
  ----- ------------  ---------------      ----- ------------  ---------------
     4      2.808275  1 O  s                 33     -1.518717  2 H  s          
    32     -0.898725  2 H  s                 47     -0.810270  3 H  s          
    12      0.794728  1 O  py                38      0.630570  2 H  py         
    11      0.626391  1 O  px                51      0.365235  3 H  px         
    46     -0.288743  3 H  s          

 Vector   10  Occ=0.000000D+00  E= 3.342979D-01  Symmetry=a
              MO Center=  7.7D-01,  1.1D-02, -7.5D-09, r^2= 5.3D+00
   Bfn.  Coefficient  Atom+Function         Bfn.  Coefficient  Atom+Function  
  ----- ------------  ---------------      ----- ------------  ---------------
    47      2.275651  3 H  s                 33     -2.001227  2 H  s          
    12      0.757337  1 O  py                11     -0.519340  1 O  px         
    46     -0.371723  3 H  s                 51     -0.345447  3 H  px         
    38      0.334068  2 H  py         

 Vector   11  Occ=0.000000D+00  E= 6.202565D-01  Symmetry=a
              MO Center=  2.4D-01, -8.0D-02,  8.6D-08, r^2= 2.1D+00
   Bfn.  Coefficient  Atom+Function         Bfn.  Coefficient  Atom+Function  
  ----- ------------  ---------------      ----- ------------  ---------------
    32     -3.720883  2 H  s                  4      3.639488  1 O  s          
    12      2.038649  1 O  py                46     -1.275291  3 H  s          
    11      0.773999  1 O  px                38      0.662187  2 H  py         
    51      0.296228  3 H  px                47      0.285429  3 H  s          
     9      0.240641  1 O  py                 2      0.229442  1 O  s          

 Vector   12  Occ=0.000000D+00  E= 6.535821D-01  Symmetry=a
              MO Center= -4.0D-01,  2.5D-02,  1.1D-08, r^2= 2.4D+00
   Bfn.  Coefficient  Atom+Function         Bfn.  Coefficient  Atom+Function  
  ----- ------------  ---------------      ----- ------------  ---------------
    46      2.957945  3 H  s                 11     -2.354527  1 O  px         
    12      1.874549  1 O  py                 4     -1.193711  1 O  s          
    32     -1.167181  2 H  s                 33     -0.900874  2 H  s          
    51     -0.880087  3 H  px                47      0.806429  3 H  s          
    38      0.375795  2 H  py                52      0.326663  3 H  py         

 Vector   13  Occ=0.000000D+00  E= 8.098117D-01  Symmetry=a
              MO Center= -1.6D-01, -1.6D-01, -9.1D-09, r^2= 2.1D+00
   Bfn.  Coefficient  Atom+Function         Bfn.  Coefficient  Atom+Function  
  ----- ------------  ---------------      ----- ------------  ---------------
     4      1.718543  1 O  s                 32     -1.616738  2 H  s          
    11      1.557882  1 O  px                12      1.249937  1 O  py         
    46     -1.100784  3 H  s                 37     -1.035760  2 H  px         
    52     -0.959967  3 H  py                38      0.277058  2 H  py         
    19      0.219355  1 O  d -2               2      0.188654  1 O  s          

 Vector   14  Occ=0.000000D+00  E= 8.577892D-01  Symmetry=a
              MO Center=  4.3D-01,  1.1D-01, -3.6D-08, r^2= 1.7D+00
   Bfn.  Coefficient  Atom+Function         Bfn.  Coefficient  Atom+Function  
  ----- ------------  ---------------      ----- ------------  ---------------
    53      0.927277  3 H  pz                39     -0.825474  2 H  pz         

 Vector   15  Occ=0.000000D+00  E= 9.740300D-01  Symmetry=a
              MO Center= -1.7D-03,  8.2D-02, -4.1D-07, r^2= 2.0D+00
   Bfn.  Coefficient  Atom+Function         Bfn.  Coefficient  Atom+Function  
  ----- ------------  ---------------      ----- ------------  ---------------
    13      1.420354  1 O  pz                39     -1.237581  2 H  pz         
    53     -0.907026  3 H  pz         

 Vector   16  Occ=0.000000D+00  E= 1.071887D+00  Symmetry=a
              MO Center= -1.6D-01, -3.2D-02,  1.5D-07, r^2= 2.1D+00
   Bfn.  Coefficient  Atom+Function         Bfn.  Coefficient  Atom+Function  
  ----- ------------  ---------------      ----- ------------  ---------------
     4      7.981591  1 O  s                 32     -4.616203  2 H  s          
    46     -2.255637  3 H  s                 38      1.982964  2 H  py         
    12      1.722026  1 O  py                33     -1.027210  2 H  s          
    11      0.983679  1 O  px                 9      0.945059  1 O  py         
    51      0.803321  3 H  px                52     -0.701818  3 H  py         

 Vector   17  Occ=0.000000D+00  E= 1.212305D+00  Symmetry=a
              MO Center=  2.5D-01,  1.7D-01, -2.0D-09, r^2= 2.1D+00
   Bfn.  Coefficient  Atom+Function         Bfn.  Coefficient  Atom+Function  
  ----- ------------  ---------------      ----- ------------  ---------------
    12     -1.391206  1 O  py                37     -1.389114  2 H  px         
    11      1.301032  1 O  px                46     -1.224828  3 H  s          
    52      0.974148  3 H  py                 4      0.774824  1 O  s          
    32      0.606486  2 H  s                 51      0.600312  3 H  px         
     8      0.224933  1 O  px                47     -0.214047  3 H  s          

 Vector   18  Occ=0.000000D+00  E= 1.368862D+00  Symmetry=a
              MO Center=  1.2D+00, -5.2D-01, -5.6D-09, r^2= 1.3D+00
   Bfn.  Coefficient  Atom+Function         Bfn.  Coefficient  Atom+Function  
  ----- ------------  ---------------      ----- ------------  ---------------
    51      2.602073  3 H  px                46     -2.273946  3 H  s          
     4      2.055885  1 O  s                 11      1.236304  1 O  px         
    47     -1.141067  3 H  s                 52     -0.881943  3 H  py         
    12     -0.859158  1 O  py                 8      0.787950  1 O  px         
    32      0.751880  2 H  s                  9     -0.601706  1 O  py         


 Wrote Lagrangian and 1- and 2-particle density matrices to ./H2O.mcpdm


     Multipole analysis of the density
     ---------------------------------

     L   x y z        total        nuclear
     -   - - -        -----        -------
     0   0 0 0      0.000000     10.000000

     1   1 0 0      0.597439     -0.000000
     1   0 1 0      0.352800      0.000000
     1   0 0 1     -0.000000      0.000000

     2   2 0 0     -4.000301      2.679864
     2   1 1 0     -0.781820     -1.276086
     2   1 0 1     -0.000000      0.000000
     2   0 2 0     -3.712202      2.764510
     2   0 1 1      0.000000      0.000000
     2   0 0 2     -5.386623      0.000000


  Mulliken analysis of the total density
  --------------------------------------

    Atom       Charge   Shell Charges
 -----------   ------   -------------------------------------------------------
    1 O    8     8.43   1.95  0.98  0.23  0.58  1.32  2.10  1.25  0.00  0.01  0.00
    2 H    1     0.81   0.32  0.35  0.02  0.03  0.07  0.01
    3 H    1     0.76   0.25  0.38  0.05  0.02  0.06  0.01

    Mulliken analysis of the active space density
    ---------------------------------------------

    Atom       Charge   Shell Charges
 -----------   ------   -------------------------------------------------------
    1 O    8     8.43   1.95  0.98  0.23  0.58  1.32  2.10  1.25  0.00  0.01  0.00
    2 H    1     0.81   0.32  0.35  0.02  0.03  0.07  0.01
    3 H    1     0.76   0.25  0.38  0.05  0.02  0.06  0.01

 Parallel integral file used      16 records with       0 large values


 Task  times  cpu:       12.6s     wall:       21.7s


                                NWChem Input Module
                                -------------------


                                 NWChem SCF Module
                                 -----------------


                                        H2O



  ao basis        = "ao basis"
  functions       =    58
  atoms           =     3
  closed shells   =     5
  open shells     =     0
  charge          =   0.00
  wavefunction    = RHF 
  input vectors   = ./h2o.mos
  output vectors  = ./h2o-trash.mos
  use symmetry    = F
  symmetry adapt  = F


 Summary of "ao basis" -> "ao basis" (spherical)
 ------------------------------------------------------------------------------
       Tag                 Description            Shells   Functions and Types
 ---------------- ------------------------------  ------  ---------------------
 O                          cc-pVTZ                 10       30   4s3p2d1f
 H                          cc-pVTZ                  6       14   3s2p1d



 Forming initial guess at      21.7s


 Loading old vectors from job with title :

H2O


 Starting SCF solution at      21.7s



 ----------------------------------------------
         Quadratically convergent ROHF

 Convergence threshold     :          1.000E-04
 Maximum no. of iterations :           30
 Final Fock-matrix accuracy:          1.000E-07
 ----------------------------------------------


 Integral file          = ./H2O.aoints.0
 Record size in doubles =  65536        No. of integs per rec  =  43688
 Max. records in memory =     49        Max. records in file   = 252482
 No. of bits per label  =      8        No. of bits per value  =     64


 #quartets = 3.213D+04 #integrals = 6.608D+05 #direct =  0.0% #cached =100.0%



       Final RHF  results 
       ------------------ 

         Total SCF energy =    -76.035226323800
      One-electron energy =   -124.196156707739
      Two-electron energy =     38.328495925725
 Nuclear repulsion energy =      9.832434458214

        Time for solution =      0.3s


             Final eigenvalues
             -----------------

              1      
    1  -20.5308
    2   -1.3885
    3   -0.7796
    4   -0.5934
    5   -0.5312
    6   -0.0256
    7   -0.0199
    8   -0.0160
    9    0.2752
   10    0.3343
   11    0.6203
   12    0.6536
   13    0.8098
   14    0.8578
   15    0.9740

                       ROHF Final Molecular Orbital Analysis
                       -------------------------------------

 Vector    2  Occ=2.000000D+00  E=-1.388520D+00
              MO Center= -3.1D-01, -1.6D-01, -2.0D-07, r^2= 4.2D-01
   Bfn.  Coefficient  Atom+Function         Bfn.  Coefficient  Atom+Function  
  ----- ------------  ---------------      ----- ------------  ---------------
     2      0.503571  1 O  s                  4      0.374535  1 O  s          

 Vector    3  Occ=2.000000D+00  E=-7.795795D-01
              MO Center= -4.3D-02,  3.0D-01,  1.4D-07, r^2= 5.4D-01
   Bfn.  Coefficient  Atom+Function         Bfn.  Coefficient  Atom+Function  
  ----- ------------  ---------------      ----- ------------  ---------------
     9      0.330337  1 O  py                 6      0.297068  1 O  py         
    32      0.260117  2 H  s                 31      0.210642  2 H  s          
    12      0.170634  1 O  py         

 Vector    4  Occ=2.000000D+00  E=-5.933757D-01
              MO Center= -6.4D-02, -2.6D-02,  4.8D-08, r^2= 6.5D-01
   Bfn.  Coefficient  Atom+Function         Bfn.  Coefficient  Atom+Function  
  ----- ------------  ---------------      ----- ------------  ---------------
    10      0.429012  1 O  pz                13      0.382957  1 O  pz         
     7      0.358143  1 O  pz         

 Vector    5  Occ=2.000000D+00  E=-5.311852D-01
              MO Center=  3.5D-01, -1.7D-01,  2.6D-08, r^2= 5.8D-01
   Bfn.  Coefficient  Atom+Function         Bfn.  Coefficient  Atom+Function  
  ----- ------------  ---------------      ----- ------------  ---------------
     8      0.330413  1 O  px                 5      0.275302  1 O  px         
    46      0.263377  3 H  s                 11      0.189865  1 O  px         
    45      0.184588  3 H  s          

 Vector    6  Occ=0.000000D+00  E=-2.560978D-02
              MO Center=  5.0D-01, -2.1D-01,  5.5D-08, r^2= 6.1D-01
   Bfn.  Coefficient  Atom+Function         Bfn.  Coefficient  Atom+Function  
  ----- ------------  ---------------      ----- ------------  ---------------
    46      0.666084  3 H  s                  5     -0.529209  1 O  px         
     8     -0.421544  1 O  px                 2     -0.321265  1 O  s          
    45      0.301834  3 H  s                  3     -0.168951  1 O  s          
     4     -0.161095  1 O  s          

 Vector    7  Occ=0.000000D+00  E=-1.985657D-02
              MO Center= -1.3D-02,  4.6D-01, -6.1D-07, r^2= 6.5D-01
   Bfn.  Coefficient  Atom+Function         Bfn.  Coefficient  Atom+Function  
  ----- ------------  ---------------      ----- ------------  ---------------
    32      0.691032  2 H  s                  6     -0.608249  1 O  py         
     9     -0.363580  1 O  py                 4     -0.287548  1 O  s          
    31      0.287012  2 H  s                  2     -0.243441  1 O  s          
    12      0.162136  1 O  py                 3     -0.154019  1 O  s          

 Vector    8  Occ=0.000000D+00  E=-1.596469D-02
              MO Center= -2.2D-03,  5.5D-03,  8.0D-07, r^2= 1.1D+00
   Bfn.  Coefficient  Atom+Function         Bfn.  Coefficient  Atom+Function  
  ----- ------------  ---------------      ----- ------------  ---------------
    13      0.753010  1 O  pz                 7     -0.669121  1 O  pz         
    10     -0.283186  1 O  pz         

 Vector    9  Occ=0.000000D+00  E= 2.751788D-01
              MO Center=  5.5D-02,  4.2D-01, -1.4D-07, r^2= 4.6D+00
   Bfn.  Coefficient  Atom+Function         Bfn.  Coefficient  Atom+Function  
  ----- ------------  ---------------      ----- ------------  ---------------
     4      2.808275  1 O  s                 33     -1.518717  2 H  s          
    32     -0.898725  2 H  s                 47     -0.810270  3 H  s          
    12      0.794728  1 O  py                38      0.630570  2 H  py         
    11      0.626391  1 O  px                51      0.365235  3 H  px         
    46     -0.288743  3 H  s          

 Vector   10  Occ=0.000000D+00  E= 3.342979D-01
              MO Center=  7.7D-01,  1.1D-02, -7.5D-09, r^2= 5.3D+00
   Bfn.  Coefficient  Atom+Function         Bfn.  Coefficient  Atom+Function  
  ----- ------------  ---------------      ----- ------------  ---------------
    47      2.275651  3 H  s                 33     -2.001227  2 H  s          
    12      0.757337  1 O  py                11     -0.519340  1 O  px         
    46     -0.371723  3 H  s                 51     -0.345447  3 H  px         
    38      0.334068  2 H  py         

 Vector   11  Occ=0.000000D+00  E= 6.202565D-01
              MO Center=  2.4D-01, -8.0D-02,  8.6D-08, r^2= 2.1D+00
   Bfn.  Coefficient  Atom+Function         Bfn.  Coefficient  Atom+Function  
  ----- ------------  ---------------      ----- ------------  ---------------
    32     -3.720883  2 H  s                  4      3.639488  1 O  s          
    12      2.038649  1 O  py                46     -1.275291  3 H  s          
    11      0.773999  1 O  px                38      0.662187  2 H  py         
    51      0.296228  3 H  px                47      0.285429  3 H  s          
     9      0.240641  1 O  py                 2      0.229442  1 O  s          

 Vector   12  Occ=0.000000D+00  E= 6.535821D-01
              MO Center= -4.0D-01,  2.5D-02,  1.1D-08, r^2= 2.4D+00
   Bfn.  Coefficient  Atom+Function         Bfn.  Coefficient  Atom+Function  
  ----- ------------  ---------------      ----- ------------  ---------------
    46      2.957945  3 H  s                 11     -2.354527  1 O  px         
    12      1.874549  1 O  py                 4     -1.193711  1 O  s          
    32     -1.167181  2 H  s                 33     -0.900874  2 H  s          
    51     -0.880087  3 H  px                47      0.806429  3 H  s          
    38      0.375795  2 H  py                52      0.326663  3 H  py         

 Vector   13  Occ=0.000000D+00  E= 8.098117D-01
              MO Center= -1.6D-01, -1.6D-01, -9.1D-09, r^2= 2.1D+00
   Bfn.  Coefficient  Atom+Function         Bfn.  Coefficient  Atom+Function  
  ----- ------------  ---------------      ----- ------------  ---------------
     4      1.718543  1 O  s                 32     -1.616738  2 H  s          
    11      1.557882  1 O  px                12      1.249937  1 O  py         
    46     -1.100784  3 H  s                 37     -1.035760  2 H  px         
    52     -0.959967  3 H  py                38      0.277058  2 H  py         
    19      0.219355  1 O  d -2               2      0.188654  1 O  s          

 Vector   14  Occ=0.000000D+00  E= 8.577892D-01
              MO Center=  4.3D-01,  1.1D-01, -3.6D-08, r^2= 1.7D+00
   Bfn.  Coefficient  Atom+Function         Bfn.  Coefficient  Atom+Function  
  ----- ------------  ---------------      ----- ------------  ---------------
    53      0.927277  3 H  pz                39     -0.825474  2 H  pz         

 Vector   15  Occ=0.000000D+00  E= 9.740300D-01
              MO Center= -1.7D-03,  8.2D-02, -4.1D-07, r^2= 2.0D+00
   Bfn.  Coefficient  Atom+Function         Bfn.  Coefficient  Atom+Function  
  ----- ------------  ---------------      ----- ------------  ---------------
    13      1.420354  1 O  pz                39     -1.237581  2 H  pz         
    53     -0.907026  3 H  pz         


 center of mass
 --------------
 x =  -0.07599894 y =  -0.04003975 z =   0.00000000

 moments of inertia (a.u.)
 ------------------
           2.822827581960           1.216439229871           0.000000000000
           1.216439229871           2.833002082974           0.000000000000
           0.000000000000           0.000000000000           5.655829664934

  Mulliken analysis of the total density
  --------------------------------------

    Atom       Charge   Shell Charges
 -----------   ------   -------------------------------------------------------
    1 O    8     8.44   1.95  0.98  0.23  0.58  1.31  2.11  1.25  0.00  0.01  0.00
    2 H    1     0.81   0.32  0.35  0.02  0.03  0.07  0.01
    3 H    1     0.75   0.25  0.38  0.05  0.02  0.06  0.01

       Multipole analysis of the density wrt the origin
       ------------------------------------------------

     L   x y z        total         open         nuclear
     -   - - -        -----         ----         -------
     0   0 0 0     -0.000000      0.000000     10.000000

     1   1 0 0      0.607852      0.000000     -0.000000
     1   0 1 0      0.356875      0.000000      0.000000
     1   0 0 1     -0.000000      0.000000      0.000000

     2   2 0 0     -3.978788      0.000000      2.679864
     2   1 1 0     -0.787144      0.000000     -1.276086
     2   1 0 1     -0.000000      0.000000      0.000000
     2   0 2 0     -3.692795      0.000000      2.764510
     2   0 1 1      0.000000      0.000000      0.000000
     2   0 0 2     -5.370902      0.000000      0.000000


 Parallel integral file used      16 records with       0 large values

 ------------------------------------
     Number of active orbitals      8
     Number of active alpha electrons      5
     Number of active beta electrons       5
 ------------------------------------
                   NWChem Extensible Many-Electron Theory Module
                   ---------------------------------------------

              ======================================================
                   This portion of the program was automatically
                  generated by a Tensor Contraction Engine (TCE).
                  The development of this portion of the program
                 and TCE was supported by US Department of Energy,
                Office of Science, Office of Basic Energy Science.
                      TCE is a product of Battelle and PNNL.
              Please cite: S.Hirata, J.Phys.Chem.A 107, 9887 (2003).
              ======================================================

                                        H2O


            General Information
            -------------------
      Number of processors :     1
         Wavefunction type : Restricted Hartree-Fock
          No. of electrons :    10
           Alpha electrons :     5
            Beta electrons :     5
           No. of orbitals :   116
            Alpha orbitals :    58
             Beta orbitals :    58
        Alpha frozen cores :     0
         Beta frozen cores :     0
     Alpha frozen virtuals :    50
      Beta frozen virtuals :    50
         Spin multiplicity : singlet 
    Number of AO functions :    58
       Number of AO shells :    22
        Use of symmetry is : off
      Symmetry adaption is : off
         Schwarz screening : 0.10D-09

          Correlation Information
          -----------------------
          Calculation type : Coupled-cluster singles & doubles                           
   Perturbative correction : none                                                        
            Max iterations :      100
        Residual threshold : 0.10D-06
     T(0) DIIS level shift : 0.00D+00
     L(0) DIIS level shift : 0.00D+00
     T(1) DIIS level shift : 0.00D+00
     L(1) DIIS level shift : 0.00D+00
     T(R) DIIS level shift : 0.00D+00
     T(I) DIIS level shift : 0.00D+00
   CC-T/L Amplitude update :  5-th order DIIS
                I/O scheme : Global Array Library
        L-threshold :  0.10D-06
        EOM-threshold :  0.10D-06
 no EOMCCSD initial starts read in
 TCE RESTART OPTIONS
 READ_INT:   F
 WRITE_INT:  F
 READ_TA:    F
 WRITE_TA:   F
 READ_XA:    F
 WRITE_XA:   F
 READ_IN3:   F
 WRITE_IN3:  F
 SLICE:      F
 D4D5:       F
 quantumc:   T
 qrotation:  F
 pwtce:      F
 qducc:      F
 nacto:                         0
 nrotv:                         0
 nrot:                          0

            Memory Information
            ------------------
          Available GA space size is    1610609372 doubles
          Available MA space size is    1610609780 doubles

 Maximum block size supplied by input
 Maximum block size         1 doubles

 tile_dim =      1

 Block   Spin    Irrep     Size     Offset   Alpha
 -------------------------------------------------
   1    alpha     a      1 doubles       0       1
   2    alpha     a      1 doubles       1       2
   3    alpha     a      1 doubles       2       3
   4    alpha     a      1 doubles       3       4
   5    alpha     a      1 doubles       4       5
   6    beta      a      1 doubles       5       1
   7    beta      a      1 doubles       6       2
   8    beta      a      1 doubles       7       3
   9    beta      a      1 doubles       8       4
  10    beta      a      1 doubles       9       5
  11    alpha     a      1 doubles      10      11
  12    alpha     a      1 doubles      11      12
  13    alpha     a      1 doubles      12      13
  14    beta      a      1 doubles      13      11
  15    beta      a      1 doubles      14      12
  16    beta      a      1 doubles      15      13

 Global array virtual files algorithm will be used

 Parallel file system coherency ......... OK

 Integral file          = ./H2O.aoints.0
 Record size in doubles =  65536        No. of integs per rec  =  43688
 Max. records in memory =     49        Max. records in file   = 252482
 No. of bits per label  =      8        No. of bits per value  =     64


 #quartets = 3.213D+04 #integrals = 6.608D+05 #direct =  0.0% #cached =100.0%


 Fock matrix recomputed
 1-e file size   =               64
 1-e file name   = ./H2O.f1
 Cpu & wall time / sec            0.3            0.3
 4-electron integrals stored in orbital form

 v2    file size   =              666
 4-index algorithm nr.  13 is used
 imaxsize =       30
 imaxsize ichop =        0
 begin_one_electron_integrals
    1    1       -32.8768919045
    2    1        -2.4637211262
    3    1         0.1825708443
    4    1        -0.0000000941
    5    1         0.1839829689
    6    1        -0.2411029603
    7    1        -0.1927446533
    8    1        -0.0000006929
    1    2        -2.4637211262
    2    2        -8.0453986804
    3    2        -0.2740035633
    4    2         0.0000000468
    5    2        -0.2437694515
    6    2         0.0615953435
    7    2         0.0530873308
    8    2         0.0000000308
    1    3         0.1825708443
    2    3        -0.2740035633
    3    3        -7.2147147149
    4    3         0.0000000221
    5    3        -0.1072282328
    6    3         0.0877576731
    7    3         2.0814739375
    8    3         0.0000077210
    1    4        -0.0000000941
    2    4         0.0000000468
    3    4         0.0000000221
    4    4        -7.0786086616
    5    4         0.0000000066
    6    4         0.0000000144
    7    4        -0.0000081565
    8    4         2.2593617698
    1    5         0.1839829689
    2    5        -0.2437694515
    3    5        -0.1072282328
    4    5         0.0000000066
    5    5        -6.8824643924
    6    5         2.0891458313
    7    5        -0.0620058146
    8    5        -0.0000003099
    1    6        -0.2411029603
    2    6         0.0615953435
    3    6         0.0877576731
    4    6         0.0000000144
    5    6         2.0891458313
    6    6        -6.2615060146
    7    6         0.0471229094
    8    6         0.0000002641
    1    7        -0.1927446533
    2    7         0.0530873308
    3    7         2.0814739375
    4    7        -0.0000081565
    5    7        -0.0620058146
    6    7         0.0471229094
    7    7        -6.2338995425
    8    7        -0.0000016834
    1    8        -0.0000006929
    2    8         0.0000000308
    3    8         0.0000077210
    4    8         2.2593617698
    5    8        -0.0000003099
    6    8         0.0000002641
    7    8        -0.0000016834
    8    8        -5.6543173295
 end_one_electron_integrals
 begin_two_electron_integrals
    1    1    1    1        4.8386420763
    2    1    1    1        0.0154072671
    2    1    2    1        0.0142151544
    3    1    1    1       -0.0939875395
    3    1    2    1       -0.0026142428
    3    1    3    1        0.0216826113
    3    1    2    2       -0.0110837824
    4    1    1    1       -0.0000000237
    4    1    3    1        0.0000000047
    4    1    4    1        0.0247234260
    4    1    2    2       -0.0000000019
    4    1    3    2        0.0000000030
    4    1    3    3        0.0000000002
    5    1    1    1       -0.1089627990
    5    1    2    1       -0.0024389824
    5    1    3    1        0.0034687515
    5    1    4    1        0.0000000003
    5    1    5    1        0.0201465448
    5    1    2    2       -0.0123000330
    5    1    3    2        0.0002942227
    5    1    4    2       -0.0000000013
    5    1    3    3       -0.0028769464
    5    1    4    3       -0.0000000006
    5    1    4    4       -0.0038705420
    6    1    1    1        0.1916241104
    6    1    2    1        0.0028483621
    6    1    3    1       -0.0061984793
    6    1    4    1       -0.0000000007
    6    1    5    1       -0.0334759855
    6    1    6    1        0.0565666263
    6    1    2    2        0.0222296984
    6    1    3    2        0.0014057959
    6    1    4    2        0.0000000016
    6    1    5    2       -0.0237216545
    6    1    3    3        0.0053615453
    6    1    4    3       -0.0000000004
    6    1    5    3       -0.0043623865
    6    1    4    4        0.0047557105
    6    1    5    4       -0.0000000020
    6    1    5    5       -0.0152382680
    7    1    1    1        0.1618310147
    7    1    2    1        0.0025198622
    7    1    3    1       -0.0360683648
    7    1    4    1        0.0000001320
    7    1    5    1       -0.0038858299
    7    1    6    1        0.0070151589
    7    1    7    1        0.0620585988
    7    1    2    2        0.0190418790
    7    1    3    2       -0.0306667980
    7    1    4    2        0.0000001328
    7    1    5    2        0.0042175513
    7    1    6    2       -0.0050479031
    7    1    3    3       -0.0179182728
    7    1    4    3        0.0000000306
    7    1    5    3       -0.0055388808
    7    1    6    3        0.0074654421
    7    1    4    4        0.0031614427
    7    1    5    4        0.0000000305
    7    1    6    4       -0.0000000385
    7    1    5    5        0.0048344073
    7    1    6    5       -0.0052790591
    7    1    6    6        0.0100661350
    8    1    1    1        0.0000005812
    8    1    2    1        0.0000000104
    8    1    3    1       -0.0000001363
    8    1    4    1       -0.0372037033
    8    1    5    1       -0.0000000122
    8    1    6    1        0.0000000225
    8    1    7    1        0.0000000173
    8    1    8    1        0.0577349334
    8    1    2    2        0.0000000698
    8    1    3    2       -0.0000001150
    8    1    4    2       -0.0365948138
    8    1    5    2        0.0000000175
    8    1    6    2       -0.0000000208
    8    1    7    2       -0.0000000074
    8    1    3    3       -0.0000000596
    8    1    4    3       -0.0071412797
    8    1    5    3       -0.0000000219
    8    1    6    3        0.0000000285
    8    1    7    3        0.0000000048
    8    1    4    4        0.0000000048
    8    1    5    4       -0.0087974163
    8    1    6    4        0.0106946064
    8    1    7    4        0.0088391257
    8    1    5    5        0.0000000196
    8    1    6    5       -0.0000000180
    8    1    7    5        0.0000000002
    8    1    6    6        0.0000000355
    8    1    7    6        0.0000000087
    8    1    7    7        0.0000000153
    2    2    1    1        1.0492001565
    2    2    2    1        0.0266378271
    2    2    2    2        0.8485037983
    3    2    1    1       -0.0131586419
    3    2    2    1       -0.0015384107
    3    2    3    1        0.0125956538
    3    2    2    2       -0.0468209987
    3    2    3    2        0.1066581368
    4    2    1    1        0.0000000217
    4    2    3    1        0.0000000025
    4    2    4    1        0.0171173113
    4    2    2    2        0.0000000079
    4    2    3    2        0.0000000016
    4    2    4    2        0.1301637212
    4    2    3    3       -0.0000000380
    5    2    1    1       -0.0062610761
    5    2    2    1       -0.0010895554
    5    2    3    1       -0.0000532241
    5    2    4    1       -0.0000000005
    5    2    5    1        0.0109662495
    5    2    2    2       -0.0469768487
    5    2    3    2       -0.0188851720
    5    2    4    2       -0.0000000037
    5    2    5    2        0.0804661231
    5    2    3    3       -0.0076825094
    5    2    4    3        0.0000000109
    5    2    4    4        0.0108348533
    6    2    1    1       -0.0054920615
    6    2    2    1        0.0019980693
    6    2    3    1        0.0012162355
    6    2    4    1        0.0000000007
    6    2    5    1       -0.0136286078
    6    2    6    1        0.0241293239
    6    2    2    2        0.0267330014
    6    2    3    2        0.0137871745
    6    2    4    2        0.0000000065
    6    2    5    2       -0.0533839372
    6    2    6    2        0.0480831557
    6    2    3    3       -0.0020380668
    6    2    4    3       -0.0000000046
    6    2    5    3       -0.0054766998
    6    2    4    4       -0.0131063251
    6    2    5    4       -0.0000000051
    6    2    5    5       -0.0349780108
    7    2    1    1       -0.0039364365
    7    2    2    1        0.0020669833
    7    2    3    1       -0.0156965054
    7    2    4    1        0.0000000694
    7    2    5    1        0.0023960211
    7    2    6    1       -0.0046089797
    7    2    7    1        0.0273394106
    7    2    2    2        0.0146437095
    7    2    3    2       -0.0510234541
    7    2    4    2        0.0000002063
    7    2    5    2        0.0157359211
    7    2    6    2       -0.0160980961
    7    2    7    2        0.0485553214
    7    2    3    3       -0.0218264723
    7    2    4    3        0.0000000123
    7    2    5    3       -0.0067236591
    7    2    6    3        0.0086342619
    7    2    4    4       -0.0113901577
    7    2    5    4        0.0000000332
    7    2    6    4       -0.0000000514
    7    2    5    5       -0.0008494379
    7    2    6    5        0.0017068783
    7    2    6    6       -0.0005024721
    8    2    1    1        0.0000000157
    8    2    2    1        0.0000000093
    8    2    3    1       -0.0000000593
    8    2    4    1       -0.0190245068
    8    2    5    1        0.0000000089
    8    2    6    1       -0.0000000163
    8    2    7    1       -0.0000000056
    8    2    8    1        0.0287130408
    8    2    2    2        0.0000000747
    8    2    3    2       -0.0000001853
    8    2    4    2       -0.0524264355
    8    2    5    2        0.0000000505
    8    2    6    2       -0.0000000557
    8    2    8    2        0.0460911003
    8    2    3    3       -0.0000000577
    8    2    4    3       -0.0051103213
    8    2    5    3       -0.0000000261
    8    2    6    3        0.0000000338
    8    2    7    3        0.0000000609
    8    2    4    4       -0.0000000416
    8    2    5    4       -0.0078432106
    8    2    6    4        0.0131658940
    8    2    7    4        0.0107750596
    8    2    5    5        0.0000000092
    8    2    6    5       -0.0000000031
    8    2    7    5       -0.0000000111
    8    2    6    6        0.0000000065
    8    2    7    6        0.0000000072
    8    2    7    7       -0.0000000049
    3    3    1    1        0.9592110643
    3    3    2    1        0.0215337796
    3    3    3    1        0.0037871275
    3    3    2    2        0.6724255514
    3    3    3    2        0.0892013500
    3    3    3    3        0.8131822892
    4    3    1    1        0.0000000599
    4    3    2    1        0.0000000025
    4    3    3    1        0.0000000011
    4    3    4    1        0.0037920202
    4    3    2    2        0.0000000224
    4    3    3    2       -0.0000000356
    4    3    4    2        0.0195797580
    4    3    3    3       -0.0000000488
    4    3    4    3        0.0370910098
    5    3    1    1        0.0173298378
    5    3    2    1        0.0001953136
    5    3    3    1        0.0036002171
    5    3    4    1        0.0000000007
    5    3    5    1        0.0027984629
    5    3    2    2       -0.0140281049
    5    3    3    2        0.0094603940
    5    3    4    2        0.0000000087
    5    3    5    2        0.0064802293
    5    3    3    3        0.0154885479
    5    3    4    3        0.0000000025
    5    3    5    3        0.0314286844
    5    3    4    4        0.0085047978
    6    3    1    1       -0.0235480339
    6    3    2    1        0.0006367124
    6    3    3    1       -0.0048469278
    6    3    4    1       -0.0000000012
    6    3    5    1       -0.0024014659
    6    3    6    1        0.0040359588
    6    3    2    2        0.0083752166
    6    3    3    2       -0.0101721636
    6    3    4    2       -0.0000000027
    6    3    5    2       -0.0054224466
    6    3    6    2        0.0022767277
    6    3    3    3       -0.0131152253
    6    3    4    3       -0.0000000008
    6    3    5    3       -0.0169750885
    6    3    6    3        0.0198960763
    6    3    4    4       -0.0079336029
    6    3    5    4       -0.0000000040
    6    3    5    5       -0.0149594792
    7    3    1    1       -0.5044203078
    7    3    2    1       -0.0204906271
    7    3    3    1       -0.0051592407
    7    3    4    1        0.0000000108
    7    3    5    1        0.0046665112
    7    3    6    1       -0.0065496954
    7    3    7    1        0.0034407799
    7    3    2    2       -0.2002263357
    7    3    3    2        0.0136599169
    7    3    4    2       -0.0000000370
    7    3    5    2       -0.0046399927
    7    3    6    2        0.0056524789
    7    3    7    2        0.0230538267
    7    3    3    3       -0.1353216557
    7    3    4    3       -0.0000000329
    7    3    5    3       -0.0058459143
    7    3    6    3        0.0106587035
    7    3    7    3        0.2000499608
    7    3    4    4       -0.1772323386
    7    3    5    4       -0.0000000009
    7    3    6    4       -0.0000000053
    7    3    5    5       -0.1502222236
    7    3    6    5        0.1143619960
    7    3    6    6       -0.1842760769
    8    3    1    1       -0.0000018771
    8    3    2    1       -0.0000000765
    8    3    3    1       -0.0000000160
    8    3    4    1       -0.0029567061
    8    3    5    1        0.0000000172
    8    3    6    1       -0.0000000247
    8    3    7    1       -0.0000000030
    8    3    8    1        0.0035695115
    8    3    2    2       -0.0000007409
    8    3    3    2        0.0000000487
    8    3    4    2       -0.0003706378
    8    3    5    2       -0.0000000144
    8    3    6    2        0.0000000220
    8    3    7    2        0.0000000619
    8    3    8    2        0.0034388598
    8    3    3    3       -0.0000005159
    8    3    4    3       -0.0066079253
    8    3    5    3       -0.0000000192
    8    3    6    3        0.0000000366
    8    3    7    3        0.0000006482
    8    3    8    3        0.0164944151
    8    3    4    4       -0.0000006615
    8    3    5    4       -0.0004549700
    8    3    6    4        0.0022551959
    8    3    7    4        0.0178189782
    8    3    5    5       -0.0000005470
    8    3    6    5        0.0000004270
    8    3    7    5       -0.0000000190
    8    3    6    6       -0.0000006753
    8    3    7    6        0.0000000161
    8    3    7    7       -0.0000005484
    4    4    1    1        1.0244055404
    4    4    2    1        0.0252839533
    4    4    3    1       -0.0031768065
    4    4    4    1        0.0000000028
    4    4    2    2        0.7211465819
    4    4    3    2        0.0088536902
    4    4    4    2        0.0000000264
    4    4    3    3        0.6552853329
    4    4    4    3        0.0000000266
    4    4    4    4        0.7415612031
    5    4    1    1       -0.0000000017
    5    4    2    1       -0.0000000006
    5    4    3    1        0.0000000008
    5    4    4    1        0.0045805510
    5    4    5    1        0.0000000011
    5    4    2    2       -0.0000000075
    5    4    3    2        0.0000000086
    5    4    4    2        0.0249787121
    5    4    5    2        0.0000000023
    5    4    3    3        0.0000000002
    5    4    4    3        0.0060576724
    5    4    5    3        0.0000000074
    5    4    4    4        0.0000000039
    5    4    5    4        0.0372599994
    6    4    1    1       -0.0000000026
    6    4    2    1        0.0000000006
    6    4    3    1       -0.0000000013
    6    4    4    1       -0.0069349846
    6    4    5    1       -0.0000000019
    6    4    6    1        0.0000000041
    6    4    2    2        0.0000000087
    6    4    3    2       -0.0000000017
    6    4    4    2       -0.0195635784
    6    4    5    2       -0.0000000107
    6    4    6    2        0.0000000082
    6    4    3    3        0.0000000015
    6    4    4    3       -0.0038202748
    6    4    5    3       -0.0000000051
[...]
    5    5    3    1       -0.0017752873
    5    5    4    1       -0.0000000009
    5    5    5    1        0.0043488769
    5    5    2    2        0.6224650658
    5    5    3    2       -0.0066277550
    5    5    4    2        0.0000000014
    5    5    5    2        0.0786676541
    5    5    3    3        0.5998606595
    5    5    4    3        0.0000000246
    5    5    5    3        0.0162637928
    5    5    4    4        0.6271725363
    5    5    5    4        0.0000000002
    5    5    5    5        0.7723157184
    6    5    1    1       -0.4880204018
    6    5    2    1       -0.0182068673
    6    5    3    1        0.0035161247
    6    5    5    1       -0.0049718825
    6    5    6    1        0.0045070328
    6    5    2    2       -0.2070835310
    6    5    3    2       -0.0016571214
    6    5    4    2       -0.0000000120
    6    5    5    2        0.0042194776
    6    5    6    2        0.0197289736
    6    5    3    3       -0.1725826125
    6    5    4    3       -0.0000000121
    6    5    5    3       -0.0062866211
    6    5    6    3        0.0053006196
    6    5    4    4       -0.1839152873
    6    5    5    4       -0.0000000048
    6    5    6    4        0.0000000011
    6    5    5    5       -0.1133857522
    6    5    6    5        0.2111823726
    7    5    1    1        0.0120321270
    7    5    2    1        0.0021917470
    7    5    3    1       -0.0033739395
    7    5    4    1        0.0000000141
    7    5    5    1       -0.0033681897
    7    5    6    1        0.0055886913
    7    5    7    1        0.0054217623
    7    5    2    2        0.0212790060
    7    5    3    2       -0.0081186295
    7    5    4    2        0.0000000185
    7    5    5    2       -0.0076040013
    7    5    6    2        0.0050757952
    7    5    7    2        0.0024882318
    7    5    3    3       -0.0034438815
    7    5    4    3        0.0000000059
    7    5    5    3       -0.0120162122
    7    5    6    3        0.0172868877
    7    5    7    3       -0.0037047494
    7    5    4    4        0.0049543206
    7    5    5    4        0.0000000225
    7    5    6    4       -0.0000000629
    7    5    7    4        0.0000000121
    7    5    5    5       -0.0030701740
    7    5    6    5       -0.0030756816
    7    5    7    5        0.0175756964
    7    5    6    6       -0.0025164927
    8    5    1    1        0.0000000636
    8    5    2    1        0.0000000092
    8    5    3    1       -0.0000000128
    8    5    4    1       -0.0038258055
    8    5    5    1       -0.0000000110
    8    5    6    1        0.0000000181
    8    5    7    1        0.0000000019
    8    5    8    1        0.0048390509
    8    5    2    2        0.0000000748
    8    5    3    2       -0.0000000276
    8    5    4    2       -0.0022688558
    8    5    5    2       -0.0000000190
    8    5    6    2        0.0000000122
    8    5    7    2       -0.0000000100
    8    5    8    2        0.0056912190
    8    5    3    3       -0.0000000029
    8    5    4    3       -0.0005282468
    8    5    5    3       -0.0000000381
    8    5    6    3        0.0000000634
    8    5    7    3       -0.0000000222
    8    5    8    3        0.0016023846
    8    5    4    4        0.0000000228
    8    5    5    4       -0.0046572745
    8    5    6    4        0.0176085011
    8    5    7    4        0.0014276026
    8    5    8    4       -0.0000000124
    8    5    5    5        0.0000000048
    8    5    6    5       -0.0000000170
    8    5    7    5        0.0000000006
    8    5    8    5        0.0174265400
    8    5    6    6        0.0000000049
    8    5    7    6       -0.0000000294
    8    5    7    7        0.0000000074
    6    6    1    1        1.0972772801
    6    6    2    1        0.0286730963
    6    6    3    1       -0.0047369673
    6    6    4    1        0.0000000005
    6    6    5    1        0.0052146185
    6    6    6    1       -0.0151863117
    6    6    2    2        0.6315328582
    6    6    3    2       -0.0101374778
    6    6    4    2        0.0000000121
    6    6    5    2        0.0713221753
    6    6    6    2       -0.0366497084
    6    6    3    3        0.6033171322
    6    6    4    3        0.0000000313
    6    6    5    3        0.0158575016
    6    6    6    3       -0.0167931613
    6    6    4    4        0.6376563007
    6    6    5    4        0.0000000033
    6    6    6    4       -0.0000000157
    6    6    5    5        0.7611650604
    6    6    6    5       -0.1346424937
    6    6    6    6        0.8127575436
    7    6    1    1       -0.0061637047
    7    6    2    1       -0.0026885602
    7    6    3    1        0.0062216526
    7    6    4    1       -0.0000000267
    7    6    5    1        0.0044060862
    7    6    6    1       -0.0067183713
    7    6    7    1       -0.0104598365
    7    6    2    2       -0.0295352962
    7    6    3    2        0.0188226770
    7    6    4    2       -0.0000001019
    7    6    5    2        0.0068878815
    7    6    6    2       -0.0065975273
    7    6    7    2       -0.0094102583
    7    6    3    3        0.0161355305
    7    6    4    3       -0.0000000268
    7    6    5    3        0.0261407724
    7    6    6    3       -0.0200356395
    7    6    7    3        0.0036901958
    7    6    4    4       -0.0010695141
    7    6    5    4       -0.0000001053
    7    6    6    4        0.0000000712
    7    6    7    4       -0.0000000089
    7    6    5    5        0.0023132092
    7    6    6    5       -0.0017986385
    7    6    7    5       -0.0176393889
    7    6    6    6        0.0008079768
    7    6    7    6        0.0320439029
    8    6    1    1       -0.0000000454
    8    6    2    1       -0.0000000111
    8    6    3    1        0.0000000237
    8    6    4    1        0.0072785613
    8    6    5    1        0.0000000155
    8    6    6    1       -0.0000000236
    8    6    7    1        0.0000000069
    8    6    8    1       -0.0126344426
    8    6    2    2       -0.0000001119
    8    6    3    2        0.0000000734
    8    6    4    2        0.0273438312
    8    6    5    2        0.0000000185
    8    6    6    2       -0.0000000215
    8    6    7    2        0.0000000090
    8    6    8    2       -0.0109897784
    8    6    3    3        0.0000000467
    8    6    4    3        0.0063570600
    8    6    5    3        0.0000000989
    8    6    6    3       -0.0000000733
    8    6    7    3        0.0000000147
    8    6    8    3       -0.0006298819
    8    6    4    4       -0.0000000048
    8    6    5    4        0.0300032117
    8    6    6    4       -0.0197387898
    8    6    7    4       -0.0032653946
    8    6    8    4        0.0000000012
    8    6    5    5       -0.0000000051
    8    6    6    5       -0.0000000045
    8    6    7    5       -0.0000000291
    8    6    8    5       -0.0075993603
    8    6    6    6       -0.0000000089
    8    6    7    6       -0.0000000038
    8    6    8    6        0.0333995433
    8    6    7    7       -0.0000000071
    7    7    1    1        1.1515523092
    7    7    2    1        0.0309130742
    7    7    3    1        0.0038127993
    7    7    4    1       -0.0000000413
    7    7    5    1       -0.0068588159
    7    7    6    1        0.0118732355
    7    7    7    1       -0.0166978192
    7    7    2    2        0.6638508655
    7    7    3    2        0.0773496218
    7    7    4    2       -0.0000001825
    7    7    5    2       -0.0093846977
    7    7    6    2       -0.0018518418
    7    7    7    2       -0.0209832051
    7    7    3    3        0.7807796440
    7    7    4    3       -0.0000002536
    7    7    5    3        0.0130347782
    7    7    6    3       -0.0112350246
    7    7    7    3       -0.1572910152
    7    7    4    4        0.6531071361
    7    7    5    4       -0.0000000340
    7    7    6    4        0.0000000223
    7    7    7    4        0.0000007676
    7    7    5    5        0.5915724606
    7    7    6    5       -0.1943229319
    7    7    7    5       -0.0007719344
    7    7    6    6        0.6221143859
    7    7    7    6        0.0134195109
    7    7    7    7        0.8181489100
    8    7    1    1        0.0000001797
    8    7    2    1       -0.0000000003
    8    7    3    1        0.0000000361
    8    7    4    1        0.0060554361
    8    7    5    1       -0.0000000021
    8    7    6    1        0.0000000103
    8    7    7    1       -0.0000000453
    8    7    8    1       -0.0104607629
    8    7    2    2        0.0000000382
    8    7    3    2        0.0000002314
    8    7    4    2        0.0226823649
    8    7    5    2       -0.0000000586
    8    7    6    2        0.0000000299
    8    7    7    2       -0.0000000223
    8    7    8    2       -0.0084656661
    8    7    3    3        0.0000005814
    8    7    4    3        0.0295931648
    8    7    5    3        0.0000000178
    8    7    6    3       -0.0000000139
    8    7    7    3        0.0000000363
    8    7    8    3       -0.0085011725
    8    7    4    4       -0.0000000675
    8    7    5    4        0.0049865207
    8    7    6    4       -0.0033912806
    8    7    7    4       -0.0170813790
    8    7    8    4       -0.0000000288
    8    7    5    5        0.0000000385
    8    7    6    5       -0.0000000777
    8    7    7    5       -0.0000000160
    8    7    8    5       -0.0001686155
    8    7    6    6        0.0000000341
    8    7    7    6        0.0000000242
    8    7    8    6        0.0062648079
    8    7    7    7        0.0000003842
    8    7    8    7        0.0328357550
    8    8    1    1        1.0927771430
    8    8    2    1        0.0305029907
    8    8    3    1       -0.0057959395
    8    8    4    1        0.0000000462
    8    8    5    1       -0.0064110672
    8    8    6    1        0.0088767615
    8    8    7    1        0.0072134350
    8    8    8    1       -0.0000000541
    8    8    2    2        0.6467036630
    8    8    3    2        0.0058213964
    8    8    4    2        0.0000001725
    8    8    5    2        0.0091906434
    8    8    6    2       -0.0104056120
    8    8    7    2       -0.0072075228
    8    8    8    2       -0.0000000858
    8    8    3    3        0.5995791038
    8    8    4    3        0.0000002352
    8    8    5    3        0.0081668637
    8    8    6    3       -0.0073981965
    8    8    7    3       -0.1674325593
    8    8    8    3       -0.0000006891
    8    8    4    4        0.6664614457
    8    8    5    4        0.0000000348
    8    8    6    4       -0.0000000279
    8    8    7    4        0.0000006100
    8    8    8    4       -0.2023809943
    8    8    5    5        0.5782174894
    8    8    6    5       -0.1683230425
    8    8    7    5        0.0047156270
    8    8    8    5        0.0000000207
    8    8    6    6        0.6106306300
    8    8    7    6       -0.0007419344
    8    8    8    6        0.0000000357
    8    8    7    7        0.6242429886
    8    8    8    7        0.0000001468
    8    8    8    8        0.6438147372
 end_two_electron_integrals
 enrep_tce =    9.8324344582138199     
  EHF(A)             =       -76.03522632
  EHF(total)         =       -76.03522632
  Shift (HFtot-HFA)  =         0.00000000
 Cpu & wall time / sec            2.4            2.4
 T1-number-of-tasks                   15

 t1 file size   =               15
 t1 file name   = ./H2O.t1
 t1 file handle =       -998
 T2-number-of-boxes                  315

 t2 file size   =              315
 t2 file name   = ./H2O.t2
 t2 file handle =       -996
CCSD iterations
 ---------------------------------------------------------
 Iter          Residuum       Correlation     Cpu    Wall 
 ---------------------------------------------------------
NEW TASK SCHEDULING
CCSD_T1_NTS --- OK
CCSD_T2_NTS --- OK
    1   0.8784516291555  -0.2358059549036     4.8     6.7
    2   1.6073326158174   0.1778502180085     4.7     6.5
    3   2.9772285254481  -0.5802341135106     4.4     6.3
    4   5.6958910932682   0.8131555606003     4.4     6.5
    5  10.0677416313607  -1.8007959069451     4.5     6.4
 MICROCYCLE DIIS UPDATE:                    5                    5
    6   0.0170928317937  -0.0853967881460     4.5     6.3
    7   0.0229914276683  -0.0911560148257     4.9     6.8
    8   0.0393518294610  -0.0810214145083     4.7     6.4
    9   0.0736041275972  -0.0979701133905     4.9     6.9
   10   0.1418463553804  -0.0599955198810     4.9     7.0
 MICROCYCLE DIIS UPDATE:                   10                    5
   11   0.0003163124691  -0.0876496651254     4.7     6.7
   12   0.0003734558658  -0.0876622458911     4.8     6.8
   13   0.0006469408355  -0.0876532164006     5.4     7.2
   14   0.0013081451256  -0.0876453355342     4.9     6.8
   15   0.0027438476599  -0.0876980081504     4.9     6.7
 MICROCYCLE DIIS UPDATE:                   15                    5
   16   0.0000117107610  -0.0876565719441     4.5     6.2
   17   0.0000138874904  -0.0876554913125     4.7     6.5
   18   0.0000285103339  -0.0876576695585     4.7     6.5
   19   0.0000613398726  -0.0876534646130     5.0     6.7
   20   0.0001333753635  -0.0876614399109     4.8     6.6
 MICROCYCLE DIIS UPDATE:                   20                    5
   21   0.0000004513442  -0.0876561950002     4.9     6.5
   22   0.0000004868653  -0.0876562932721     4.8     6.6
   23   0.0000008641465  -0.0876561167031     4.3     6.1
   24   0.0000016465539  -0.0876564411571     4.7     6.2
   25   0.0000032155371  -0.0876558383267     4.8     6.7
 MICROCYCLE DIIS UPDATE:                   25                    5
   26   0.0000000200100  -0.0876562314627     4.7     6.8
 -----------------------------------------------------------------
 Iterations converged
 CCSD correlation energy / hartree =        -0.087656231462681
 CCSD total energy / hartree       =       -76.122882555262990

 Singles contributions

 Doubles contributions
     6a   (alpha)     7a   (alpha) ---     3a   (alpha)     5a   (alpha)        0.0227001486
     6a   (alpha)     8a   (alpha) ---     4a   (alpha)     5a   (alpha)        0.0290826648
     6a   (alpha)     6a   (beta ) ---     5a   (alpha)     5a   (beta )       -0.0824922073
     6a   (alpha)     7a   (beta ) ---     5a   (alpha)     3a   (beta )       -0.0319487948
     6a   (alpha)     8a   (beta ) ---     5a   (alpha)     4a   (beta )       -0.0390388690
     7a   (alpha)     8a   (alpha) ---     3a   (alpha)     4a   (alpha)       -0.0280229170
     7a   (alpha)     6a   (beta ) ---     3a   (alpha)     5a   (beta )       -0.0319487948
     7a   (alpha)     7a   (beta ) ---     3a   (alpha)     3a   (beta )       -0.0623982396
     7a   (alpha)     8a   (beta ) ---     3a   (alpha)     4a   (beta )       -0.0367531420
     8a   (alpha)     6a   (beta ) ---     4a   (alpha)     5a   (beta )       -0.0390388690
     8a   (alpha)     7a   (beta ) ---     4a   (alpha)     3a   (beta )       -0.0367531420
     8a   (alpha)     8a   (beta ) ---     4a   (alpha)     4a   (beta )       -0.0559139895
 Ground state specification:
 exp(T)|Ref>~(1+T)|Ref>
 ------- a(p)+/a(q) strings ----------

 singles norm

 doubles norm

 Reference string
   1.0000000000000000      :(1a)+ (2a)+ (3a)+ (4a)+ (5a)+ (1b)+ (2b)+ (3b)+ (4b)+ (5b)+ |0>

 Singles strings

 Doubles strings
 -------------------------------------

 Parallel integral file used      16 records with       0 large values


 Task  times  cpu:      127.1s     wall:      176.1s


                                NWChem Input Module
                                -------------------


 Summary of allocated global arrays
-----------------------------------
  No active global arrays


MA_summarize_allocated_blocks: starting scan ...
MA_summarize_allocated_blocks: scan completed: 0 heap blocks, 0 stack blocks
MA usage statistics:

	allocation statistics:
					      heap	     stack
					      ----	     -----
	current number of blocks	         0	         0
	maximum number of blocks	        18	        42
	current total bytes		         0	         0
	maximum total bytes		  25775928	  38234424
	maximum total K-bytes		     25776	     38235
	maximum total M-bytes		        26	        39


                                     CITATION
                                     --------
                Please cite the following reference when publishing
                           results obtained with NWChem:

          E. Apra, E. J. Bylaska, W. A. de Jong, N. Govind, K. Kowalski,
       T. P. Straatsma, M. Valiev, H. J. J. van Dam, Y. Alexeev, J. Anchell,
       V. Anisimov, F. W. Aquino, R. Atta-Fynn, J. Autschbach, N. P. Bauman,
     J. C. Becca, D. E. Bernholdt, K. Bhaskaran-Nair, S. Bogatko, P. Borowski,
         J. Boschen, J. Brabec, A. Bruner, E. Cauet, Y. Chen, G. N. Chuev,
      C. J. Cramer, J. Daily, M. J. O. Deegan, T. H. Dunning Jr., M. Dupuis,
   K. G. Dyall, G. I. Fann, S. A. Fischer, A. Fonari, H. Fruchtl, L. Gagliardi,
      J. Garza, N. Gawande, S. Ghosh, K. Glaesemann, A. W. Gotz, J. Hammond,
       V. Helms, E. D. Hermes, K. Hirao, S. Hirata, M. Jacquelin, L. Jensen,
   B. G. Johnson, H. Jonsson, R. A. Kendall, M. Klemm, R. Kobayashi, V. Konkov,
      S. Krishnamoorthy, M. Krishnan, Z. Lin, R. D. Lins, R. J. Littlefield,
      A. J. Logsdail, K. Lopata, W. Ma, A. V. Marenich, J. Martin del Campo,
   D. Mejia-Rodriguez, J. E. Moore, J. M. Mullin, T. Nakajima, D. R. Nascimento,
    J. A. Nichols, P. J. Nichols, J. Nieplocha, A. Otero-de-la-Roza, B. Palmer,
    A. Panyala, T. Pirojsirikul, B. Peng, R. Peverati, J. Pittner, L. Pollack,
   R. M. Richard, P. Sadayappan, G. C. Schatz, W. A. Shelton, D. W. Silverstein,
   D. M. A. Smith, T. A. Soares, D. Song, M. Swart, H. L. Taylor, G. S. Thomas,
            V. Tipparaju, D. G. Truhlar, K. Tsemekhman, T. Van Voorhis,
      A. Vazquez-Mayagoitia, P. Verma, O. Villa, A. Vishnu, K. D. Vogiatzis,
        D. Wang, J. H. Weare, M. J. Williamson, T. L. Windus, K. Wolinski,
        A. T. Wong, Q. Wu, C. Yang, Q. Yu, M. Zacharias, Z. Zhang, Y. Zhao,
                                and R. J. Harrison
                        "NWChem: Past, present, and future
                         J. Chem. Phys. 152, 184102 (2020)
                               doi:10.1063/5.0004997

                                      AUTHORS
                                      -------
  E. Apra, E. J. Bylaska, N. Govind, K. Kowalski, M. Valiev, D. Mejia-Rodriguez,
       A. Kunitsa, N. P. Bauman, A. Panyala, W. A. de Jong, T. P. Straatsma,
        H. J. J. van Dam, D. Wang, T. L. Windus, J. Hammond, J. Autschbach,
    K. Bhaskaran-Nair, J. Brabec, K. Lopata, S. A. Fischer, S. Krishnamoorthy,
     M. Jacquelin, W. Ma, M. Klemm, O. Villa, Y. Chen, V. Anisimov, F. Aquino,
    S. Hirata, M. T. Hackler, Eric Hermes, L. Jensen, J. E. Moore, J. C. Becca,
      V. Konjkov, T. Risthaus, M. Malagoli, A. Marenich, A. Otero-de-la-Roza,
        J. Mullin, P. Nichols, R. Peverati, J. Pittner, Y. Zhao, P.-D. Fan,
        A. Fonari, M. J. Williamson, R. J. Harrison, J. R. Rehr, M. Dupuis,
     D. Silverstein, D. M. A. Smith, J. Nieplocha, V. Tipparaju, M. Krishnan,
     B. E. Van Kuiken, A. Vazquez-Mayagoitia, M. Swart, Q. Wu, T. Van Voorhis,
     A. A. Auer, M. Nooijen, L. D. Crosby, E. Brown, G. Cisneros, G. I. Fann,
   H. Fruchtl, J. Garza, K. Hirao, R. A. Kendall, J. A. Nichols, K. Tsemekhman,
    K. Wolinski, J. Anchell, D. E. Bernholdt, P. Borowski, T. Clark, D. Clerc,
   H. Dachsel, M. J. O. Deegan, K. Dyall, D. Elwood, E. Glendening, M. Gutowski,
   A. C. Hess, J. Jaffe, B. G. Johnson, J. Ju, R. Kobayashi, R. Kutteh, Z. Lin,
   R. Littlefield, X. Long, B. Meng, T. Nakajima, S. Niu, L. Pollack, M. Rosing,
   K. Glaesemann, G. Sandrone, M. Stave, H. Taylor, G. Thomas, J. H. van Lenthe,
                               A. T. Wong, Z. Zhang.

 Total times  cpu:      139.7s     wall:      197.8s
