 argument  1 = input.nw
  NWChem w/ OpenMP: maximum threads =    1



============================== echo of input deck ==============================
 echo
 start H2O
 title "H2O"

 memory total 24 gb

 geometry units bohr
 symmetry c1
        O  0.00000000  0.00000000  0.00000000
        H  0.00000000  1.84345  0.00000000
        H  1.72558000 -0.64860000  0.00000000
 end

 basis spherical
   * library cc-pVTZ
 end

 mcscf
   active  8
   actelec 10
   multiplicity 1
   maxiter 40
   vectors input h2o.mos
   vectors output h2o.mos
 end

 task mcscf

 scf
   vectors input h2o.mos
   vectors output h2o-trash.mos
   noscf
 end

 tce
   2eorb
   2emet 13
   ccsd
   maxiter 300
 end

 set tce:print_integrals T
 set tce:qorb 8
 set tce:qela 5
 set tce:qelb 5

# set tce:qducc T
# set tce:nactv 3
# set tce:nonhf T
# set tce:ducc_model 6

 set tce:printtol 0.02

 task tce
================================================================================


                                         
                                         


             Northwest Computational Chemistry Package (NWChem) 7.0.1
             --------------------------------------------------------


                    Environmental Molecular Sciences Laboratory
                       Pacific Northwest National Laboratory
                                Richland, WA 99352

                              Copyright (c) 1994-2020
                       Pacific Northwest National Laboratory
                            Battelle Memorial Institute

             NWChem is an open-source computational chemistry package
                        distributed under the terms of the
                      Educational Community License (ECL) 2.0
             A copy of the license is included with this distribution
                              in the LICENSE.TXT file

                                  ACKNOWLEDGMENT
                                  --------------

            This software and its documentation were developed at the
            EMSL at Pacific Northwest National Laboratory, a multiprogram
            national laboratory, operated for the U.S. Department of Energy
            by Battelle under Contract Number DE-AC05-76RL01830. Support
            for this work was provided by the Department of Energy Office
            of Biological and Environmental Research, Office of Basic
            Energy Sciences, and the Office of Advanced Scientific Computing.


           Job information
           ---------------

    hostname        = WE46210
    program         = /home/baum612/code/nwchem/bin/LINUX64/nwchem
    date            = Tue Apr 30 16:42:11 2024

    compiled        = Tue_Apr_30_12:43:26_2024
    source          = /home/baum612/code/nwchem
    nwchem branch   = 7.0.0
    nwchem revision = nwchem_on_git-4191-g39d87d64de
    ga revision     = 5.8.1
    use scalapack   = F
    input           = input.nw
    prefix          = H2O.
    data base       = ./H2O.db
    status          = startup
    nproc           =        1
    time left       =     -1s



           Memory information
           ------------------

    heap     =  805306362 doubles =   6144.0 Mbytes
    stack    =  805306367 doubles =   6144.0 Mbytes
    global   = 1610612736 doubles =  12288.0 Mbytes (distinct from heap & stack)
    total    = 3221225465 doubles =  24576.0 Mbytes
    verify   = yes
    hardfail = no 


           Directory information
           ---------------------

  0 permanent = .
  0 scratch   = .




                                NWChem Input Module
                                -------------------


                                        H2O
                                        ---
 Turning off AUTOSYM since
 SYMMETRY directive was detected!


          ------
          auto-z
          ------
  no constraints, skipping    0.0000000000000000     
  no constraints, skipping    0.0000000000000000     


                             Geometry "geometry" -> ""
                             -------------------------

 Output coordinates in a.u. (scale by  1.000000000 to convert to a.u.)

  No.       Tag          Charge          X              Y              Z
 ---- ---------------- ---------- -------------- -------------- --------------
    1 O                    8.0000    -0.17255800    -0.11948500     0.00000000
    2 H                    1.0000    -0.17255800     1.72396500     0.00000000
    3 H                    1.0000     1.55302200    -0.76808500     0.00000000

      Atomic Mass 
      ----------- 

      O                 15.994910
      H                  1.007825


 Effective nuclear repulsion energy (a.u.)       9.0092846361

            Nuclear Dipole moment (a.u.) 
            ----------------------------
        X                 Y               Z
 ---------------- ---------------- ----------------
    -0.0000000000     0.0000000000     0.0000000000



                                Z-matrix (autoz)
                                -------- 

 Units are Angstrom for bonds and degrees for angles

      Type          Name      I     J     K     L     M      Value
      ----------- --------  ----- ----- ----- ----- ----- ----------
    1 Stretch                  1     2                       0.97551
    2 Stretch                  1     3                       0.97551
    3 Bend                     2     1     3               110.59992


            XYZ format geometry
            -------------------
     3
 geometry
 O                    -0.09131377    -0.06322874     0.00000000
 H                    -0.09131377     0.91228306     0.00000000
 H                     0.82182391    -0.40645311     0.00000000

 ==============================================================================
                                internuclear distances
 ------------------------------------------------------------------------------
       center one      |      center two      | atomic units |       a.u.
 ------------------------------------------------------------------------------
    2 H                |   1 O                |     1.84345  |     1.84345
    3 H                |   1 O                |     1.84345  |     1.84345
 ------------------------------------------------------------------------------
                         number of included internuclear distances:          2
 ==============================================================================



 ==============================================================================
                                 internuclear angles
 ------------------------------------------------------------------------------
        center 1       |       center 2       |       center 3       |  degrees
 ------------------------------------------------------------------------------
    2 H                |   1 O                |   3 H                |   110.60
 ------------------------------------------------------------------------------
                            number of included internuclear angles:          1
 ==============================================================================





 Summary of "ao basis" -> "" (spherical)
 ------------------------------------------------------------------------------
       Tag                 Description            Shells   Functions and Types
 ---------------- ------------------------------  ------  ---------------------
 *                          cc-pVTZ                   on all atoms 


                      Basis "ao basis" -> "ao basis" (spherical)
                      -----
  O (Oxygen)
  ----------
            Exponent  Coefficients 
       -------------- ---------------------------------------------------------
  1 S  1.53300000E+04  0.000508
  1 S  2.29900000E+03  0.003929
  1 S  5.22400000E+02  0.020243
  1 S  1.47300000E+02  0.079181
  1 S  4.75500000E+01  0.230687
  1 S  1.67600000E+01  0.433118
  1 S  6.20700000E+00  0.350260
  1 S  6.88200000E-01 -0.008154

  2 S  1.53300000E+04 -0.000115
  2 S  2.29900000E+03 -0.000895
  2 S  5.22400000E+02 -0.004636
  2 S  1.47300000E+02 -0.018724
  2 S  4.75500000E+01 -0.058463
  2 S  1.67600000E+01 -0.136463
  2 S  6.20700000E+00 -0.175740
  2 S  6.88200000E-01  0.603418

  3 S  1.75200000E+00  1.000000

  4 S  2.38400000E-01  1.000000

  5 P  3.44600000E+01  0.015928
  5 P  7.74900000E+00  0.099740
  5 P  2.28000000E+00  0.310492

  6 P  7.15600000E-01  1.000000

  7 P  2.14000000E-01  1.000000

  8 D  2.31400000E+00  1.000000

  9 D  6.45000000E-01  1.000000

 10 F  1.42800000E+00  1.000000

  H (Hydrogen)
  ------------
            Exponent  Coefficients 
       -------------- ---------------------------------------------------------
  1 S  3.38700000E+01  0.006068
  1 S  5.09500000E+00  0.045308
  1 S  1.15900000E+00  0.202822

  2 S  3.25800000E-01  1.000000

  3 S  1.02700000E-01  1.000000

  4 P  1.40700000E+00  1.000000

  5 P  3.88000000E-01  1.000000

  6 D  1.05700000E+00  1.000000



 Summary of "ao basis" -> "ao basis" (spherical)
 ------------------------------------------------------------------------------
       Tag                 Description            Shells   Functions and Types
 ---------------- ------------------------------  ------  ---------------------
 O                          cc-pVTZ                 10       30   4s3p2d1f
 H                          cc-pVTZ                  6       14   3s2p1d



                            NWChem Direct MCSCF Module
                            --------------------------


                                        H2O


     -----------------------------------
       Basis functions:             58
       Inactive shells:              0
       Active shells:                8
       Active electrons:            10
       Symmetry:                    a       
       Multiplicity:                 1
       Orbital rotations:          400
     -----------------------------------

     -----------------------------------
       E2 extrapolation:             F
       Conjugacy:                    T
       Micro CI relax:               T
       Canonical orbitals:           T
       Maximum iterations:          40
       Converge threshold:    1.00E-04
       Conjugacy resets:            20
       Initial levelshift:        0.10
     -----------------------------------

 Loading old vectors from job with title :

H2O


   input molecular orbitals = ./h2o.mos
  output molecular orbtials = ./h2o.mos

       No. of determinants:          3136


  Starting Orbital Energies
   -20.545171    -1.339186    -0.733727    -0.582005    -0.523114    -0.025989
    -0.025222    -0.016029     0.291647     0.335282     0.609127     0.659873
     0.811830     0.842304     0.973301     1.129395     1.165096     1.373505
     1.394554     1.990569     2.064969     2.072646     2.129975     2.208176
     2.601228     2.871746     3.371951     3.501999     3.516732     3.555415
     3.582676     3.855359     3.876506     3.929669     3.999194     4.046461
     4.092265     4.312780     4.392235     4.418063     4.610952     4.808612
     5.016829     5.233333     5.528347     5.961022     6.371521     6.865072
     6.901901     6.940376     6.977055     7.099036     7.109551     7.169712
     7.480102     7.686607     8.141136    12.535289

  Orbital Symmetry Irreps
a    a    a    a    a    a    a    a    a    a    a    a    a    a    a   
a    a    a    a    a    a    a    a    a    a    a    a    a    a    a   
a    a    a    a    a    a    a    a    a    a    a    a    a    a    a   
a    a    a    a    a    a    a    a    a    a    a    a    a   

 Integral file          = ./H2O.aoints.0
 Record size in doubles =  65536        No. of integs per rec  =  43688
 Max. records in memory =     49        Max. records in file   = 250959
 No. of bits per label  =      8        No. of bits per value  =     64


 #quartets = 3.213D+04 #integrals = 6.608D+05 #direct =  0.0% #cached =100.0%




          %%%%% MacroIteration   1 %%%%%


          Number of sigma calls:       14
                       o<<<<< (aa):             0.00
                       o<<<<< (bb):             0.00
                       o<<<<< (ab):             0.04
                       o<<<<< (total)           0.05
                       o<<<<< (aa) ff           0.00
                       o<<<<< (aa) gop          0.00
                       o<<<<< (aa) dot          0.00
                       o<<<<< (ab) str          0.00
                       o<<<<< (ab) gath         0.00
                       o<<<<< (ab) dotab        0.00
                       o<<<<< (ab) scat         0.00
                       o<<<<< (ab) sync         0.00
                       o<<<<< Density           0.01
                       o<<<<< Density one       0.00
                       o<<<<< Density two       0.00
                       o<<<<< Density ab        0.01
                       o<<<<< Spin adapt        0.29
                       o<<<<< Symm adapt        0.00

                       o<<<<< (ab) max sync:      0.00

           >>>| Valence CI:            -85.157256428107
           >>>| MCSCF energy:          -76.147971791983
           >>>| Gradient norm:          0.217660782D-01

                              ----- Line search ------

        step       energy         lsg     num-lsg   num-lsh   lsrat    time
      ------- ---------------- --------- --------- --------- ------- --------
       0.0000     -76.14797179 -4.33D-05  0.00D+00  0.00D+00 0.0D+00      0.9

          Number of sigma calls:       14
                       o<<<<< (aa):             0.00
                       o<<<<< (bb):             0.00
                       o<<<<< (ab):             0.05
                       o<<<<< (total)           0.05
                       o<<<<< (aa) ff           0.00
                       o<<<<< (aa) gop          0.00
                       o<<<<< (aa) dot          0.00
                       o<<<<< (ab) str          0.00
                       o<<<<< (ab) gath         0.00
                       o<<<<< (ab) dotab        0.00
                       o<<<<< (ab) scat         0.00
                       o<<<<< (ab) sync         0.00
                       o<<<<< Density           0.00
                       o<<<<< Density one       0.00
                       o<<<<< Density two       0.00
                       o<<<<< Density ab        0.00
                       o<<<<< Spin adapt        0.24
                       o<<<<< Symm adapt        0.00

                       o<<<<< (ab) max sync:      0.00
       1.0000     -76.14799418 -1.53D-06 -1.53D-06  4.17D-05 3.5D-02      1.3
     --- Orbitals canonicalized ---



          %%%%% MacroIteration   2 %%%%%


          Number of sigma calls:       11
                       o<<<<< (aa):             0.00
                       o<<<<< (bb):             0.00
                       o<<<<< (ab):             0.04
                       o<<<<< (total)           0.04
                       o<<<<< (aa) ff           0.00
                       o<<<<< (aa) gop          0.00
                       o<<<<< (aa) dot          0.00
                       o<<<<< (ab) str          0.00
                       o<<<<< (ab) gath         0.00
                       o<<<<< (ab) dotab        0.00
                       o<<<<< (ab) scat         0.00
                       o<<<<< (ab) sync         0.00
                       o<<<<< Density           0.01
                       o<<<<< Density one       0.00
                       o<<<<< Density two       0.00
                       o<<<<< Density ab        0.01
                       o<<<<< Spin adapt        0.26
                       o<<<<< Symm adapt        0.00

                       o<<<<< (ab) max sync:      0.00

           >>>| Valence CI:            -85.157278820414
           >>>| MCSCF energy:          -76.147994184288
           >>>| Gradient norm:          0.164331284D-02
     --- Warning:    2 Hessian diagonals < 0.05 ---
     --- Conjugacy reset ---

                              ----- Line search ------

        step       energy         lsg     num-lsg   num-lsh   lsrat    time
      ------- ---------------- --------- --------- --------- ------- --------
       0.0000     -76.14799418 -4.83D-07  0.00D+00  0.00D+00 0.0D+00      1.8

          Number of sigma calls:       10
                       o<<<<< (aa):             0.00
                       o<<<<< (bb):             0.00
                       o<<<<< (ab):             0.03
                       o<<<<< (total)           0.03
                       o<<<<< (aa) ff           0.00
                       o<<<<< (aa) gop          0.00
                       o<<<<< (aa) dot          0.00
                       o<<<<< (ab) str          0.00
                       o<<<<< (ab) gath         0.00
                       o<<<<< (ab) dotab        0.00
                       o<<<<< (ab) scat         0.00
                       o<<<<< (ab) sync         0.00
                       o<<<<< Density           0.01
                       o<<<<< Density one       0.00
                       o<<<<< Density two       0.00
                       o<<<<< Density ab        0.00
                       o<<<<< Spin adapt        0.26
                       o<<<<< Symm adapt        0.00

                       o<<<<< (ab) max sync:      0.00
       1.0000     -76.14799450 -1.46D-07 -1.46D-07  3.37D-07 3.0D-01      2.2

          Number of sigma calls:        9
                       o<<<<< (aa):             0.00
                       o<<<<< (bb):             0.00
                       o<<<<< (ab):             0.03
                       o<<<<< (total)           0.03
                       o<<<<< (aa) ff           0.00
                       o<<<<< (aa) gop          0.00
                       o<<<<< (aa) dot          0.00
                       o<<<<< (ab) str          0.00
                       o<<<<< (ab) gath         0.00
                       o<<<<< (ab) dotab        0.00
                       o<<<<< (ab) scat         0.00
                       o<<<<< (ab) sync         0.00
                       o<<<<< Density           0.01
                       o<<<<< Density one       0.00
                       o<<<<< Density two       0.00
                       o<<<<< Density ab        0.01
                       o<<<<< Spin adapt        0.23
                       o<<<<< Symm adapt        0.00

                       o<<<<< (ab) max sync:      0.00
       1.4333     -76.14799453 -2.78D-10 -2.65D-10  3.36D-07 5.8D-04      2.6



          %%%%% MacroIteration   3 %%%%%


          Number of sigma calls:        1
                       o<<<<< (aa):             0.00
                       o<<<<< (bb):             0.00
                       o<<<<< (ab):             0.00
                       o<<<<< (total)           0.00
                       o<<<<< (aa) ff           0.00
                       o<<<<< (aa) gop          0.00
                       o<<<<< (aa) dot          0.00
                       o<<<<< (ab) str          0.00
                       o<<<<< (ab) gath         0.00
                       o<<<<< (ab) dotab        0.00
                       o<<<<< (ab) scat         0.00
                       o<<<<< (ab) sync         0.00
                       o<<<<< Density           0.00
                       o<<<<< Density one       0.00
                       o<<<<< Density two       0.00
                       o<<<<< Density ab        0.00
                       o<<<<< Spin adapt        0.00
                       o<<<<< Symm adapt        0.00

                       o<<<<< (ab) max sync:      0.00

           >>>| Valence CI:            -85.157279166163
           >>>| MCSCF energy:          -76.147994530038
           >>>| Gradient norm:          0.251177130D-03
     --- Warning:    2 Hessian diagonals < 0.05 ---

                              ----- Line search ------

        step       energy         lsg     num-lsg   num-lsh   lsrat    time
      ------- ---------------- --------- --------- --------- ------- --------
       0.0000     -76.14799453 -1.63D-08  0.00D+00  0.00D+00 0.0D+00      2.7

          Number of sigma calls:        9
                       o<<<<< (aa):             0.00
                       o<<<<< (bb):             0.00
                       o<<<<< (ab):             0.03
                       o<<<<< (total)           0.03
                       o<<<<< (aa) ff           0.00
                       o<<<<< (aa) gop          0.00
                       o<<<<< (aa) dot          0.00
                       o<<<<< (ab) str          0.00
                       o<<<<< (ab) gath         0.00
                       o<<<<< (ab) dotab        0.00
                       o<<<<< (ab) scat         0.00
                       o<<<<< (ab) sync         0.00
                       o<<<<< Density           0.00
                       o<<<<< Density one       0.00
                       o<<<<< Density two       0.00
                       o<<<<< Density ab        0.00
                       o<<<<< Spin adapt        0.24
                       o<<<<< Symm adapt        0.00

                       o<<<<< (ab) max sync:      0.00
       1.0000     -76.14799454 -4.11D-09 -4.11D-09  1.21D-08 2.5D-01      3.0

          Number of sigma calls:        8
                       o<<<<< (aa):             0.00
                       o<<<<< (bb):             0.00
                       o<<<<< (ab):             0.03
                       o<<<<< (total)           0.03
                       o<<<<< (aa) ff           0.00
                       o<<<<< (aa) gop          0.00
                       o<<<<< (aa) dot          0.00
                       o<<<<< (ab) str          0.00
                       o<<<<< (ab) gath         0.00
                       o<<<<< (ab) dotab        0.00
                       o<<<<< (ab) scat         0.00
                       o<<<<< (ab) sync         0.00
                       o<<<<< Density           0.01
                       o<<<<< Density one       0.00
                       o<<<<< Density two       0.00
                       o<<<<< Density ab        0.01
                       o<<<<< Spin adapt        0.18
                       o<<<<< Symm adapt        0.00

                       o<<<<< (ab) max sync:      0.00
       1.3384     -76.14799454 -3.71D-13 -1.42D-12  1.21D-08 2.3D-05      3.4



          %%%%% MacroIteration   4 %%%%%


          Number of sigma calls:        1
                       o<<<<< (aa):             0.00
                       o<<<<< (bb):             0.00
                       o<<<<< (ab):             0.00
                       o<<<<< (total)           0.00
                       o<<<<< (aa) ff           0.00
                       o<<<<< (aa) gop          0.00
                       o<<<<< (aa) dot          0.00
                       o<<<<< (ab) str          0.00
                       o<<<<< (ab) gath         0.00
                       o<<<<< (ab) dotab        0.00
                       o<<<<< (ab) scat         0.00
                       o<<<<< (ab) sync         0.00
                       o<<<<< Density           0.01
                       o<<<<< Density one       0.00
                       o<<<<< Density two       0.00
                       o<<<<< Density ab        0.01
                       o<<<<< Spin adapt        0.00
                       o<<<<< Symm adapt        0.00

                       o<<<<< (ab) max sync:      0.00

           >>>| Valence CI:            -85.157279177041
           >>>| MCSCF energy:          -76.147994540916
           >>>| Gradient norm:          0.712270254D-04




     ==============================
            MCSCF Converged
     ==============================



          Canonical Eigenvalues

              1      
    1  -20.5443
    2   -1.3419
    3   -0.7364
    4   -0.5818
    5   -0.5240
    6   -0.0262
    7   -0.0251
    8   -0.0160
    9    0.2957
   10    0.3355
   11    0.6121
   12    0.6591
   13    0.8109
   14    0.8433
   15    0.9735
   16    1.1327
   17    1.1677
   18    1.3726
   19    1.3978
   20    1.9933
   21    2.0652
   22    2.0673
   23    2.1322
   24    2.2088
   25    2.6027
   26    2.8721
   27    3.3720
   28    3.5055
   29    3.5204
   30    3.5474
   31    3.5884
   32    3.8628
   33    3.8769
   34    3.9319
   35    3.9981
   36    4.0497
   37    4.1035
   38    4.3210
   39    4.4044
   40    4.4276
   41    4.6165
   42    4.8234
   43    5.0296
   44    5.2422
   45    5.5286
   46    5.9699
   47    6.3898
   48    6.8881
   49    6.9094
   50    6.9532
   51    6.9769
   52    7.1000
   53    7.1233
   54    7.1744
   55    7.4850
   56    7.7000
   57    8.1608
   58   12.6132


          Converged CI vector

   Index           Coefficient          Config. Occupation
         1         -0.97583209          1  2  3  4  5  1  2  3  4  5
        22          0.07071366          1  2  3  4  5  1  2  3  4  8
         3          0.04614383          1  2  3  4  5  1  2  3  5  6
        27         -0.02305236          1  2  3  4  5  1  2  3  6  8
         9          0.04315596          1  2  3  4  5  1  2  4  5  7
        38         -0.02668769          1  2  3  4  5  1  2  4  7  8
      1177          0.07071366          1  2  3  4  8  1  2  3  4  5
      1198          0.05139631          1  2  3  4  8  1  2  3  4  8
      1179          0.02824787          1  2  3  4  8  1  2  3  5  6
      1185          0.03621073          1  2  3  4  8  1  2  4  5  7
      1181          0.02191229          1  2  3  4  8  1  3  4  5  6
       113          0.04614383          1  2  3  5  6  1  2  3  4  5
       134          0.02824787          1  2  3  5  6  1  2  3  4  8
       115          0.04235492          1  2  3  5  6  1  2  3  5  6
       121          0.03860784          1  2  3  5  6  1  2  4  5  7
       117          0.02864017          1  2  3  5  6  1  3  4  5  6
       400          0.02028835          1  2  3  5  7  1  2  3  5  7
       396          0.02003443          1  2  3  5  7  1  2  4  5  6
      1457         -0.02305236          1  2  3  6  8  1  2  3  4  5
       176          0.02003443          1  2  4  5  6  1  2  3  5  7
       172          0.02448343          1  2  4  5  6  1  2  4  5  6
       449          0.04315596          1  2  4  5  7  1  2  3  4  5
       470          0.03621073          1  2  4  5  7  1  2  3  4  8
       451          0.03860784          1  2  4  5  7  1  2  3  5  6
       457          0.06333876          1  2  4  5  7  1  2  4  5  7
       453          0.02754285          1  2  4  5  7  1  3  4  5  6
      2073         -0.02668769          1  2  4  7  8  1  2  3  4  5
       246          0.02191229          1  3  4  5  6  1  2  3  4  8
       227          0.02864017          1  3  4  5  6  1  2  3  5  6
       233          0.02754285          1  3  4  5  6  1  2  4  5  7
       229          0.02752549          1  3  4  5  6  1  3  4  5  6

          Number of sigma calls:        1
                       o<<<<< (aa):             0.00
                       o<<<<< (bb):             0.00
                       o<<<<< (ab):             0.00
                       o<<<<< (total)           0.00
                       o<<<<< (aa) ff           0.00
                       o<<<<< (aa) gop          0.00
                       o<<<<< (aa) dot          0.00
                       o<<<<< (ab) str          0.00
                       o<<<<< (ab) gath         0.00
                       o<<<<< (ab) dotab        0.00
                       o<<<<< (ab) scat         0.00
                       o<<<<< (ab) sync         0.00
                       o<<<<< Density           0.00
                       o<<<<< Density one       0.00
                       o<<<<< Density two       0.00
                       o<<<<< Density ab        0.00
                       o<<<<< Spin adapt        0.00
                       o<<<<< Symm adapt        0.00

                       o<<<<< (ab) max sync:      0.00



          Natural orbital occupation numbers

              1      
    1    2.0000
    2    1.9989
    3    1.9822
    4    1.9770
    5    1.9766
    6    0.0241
    7    0.0237
    8    0.0175


          Number of sigma calls:       14
                       o<<<<< (aa):             0.00
                       o<<<<< (bb):             0.00
                       o<<<<< (ab):             0.03
                       o<<<<< (total)           0.04
                       o<<<<< (aa) ff           0.00
                       o<<<<< (aa) gop          0.00
                       o<<<<< (aa) dot          0.00
                       o<<<<< (ab) str          0.00
                       o<<<<< (ab) gath         0.00
                       o<<<<< (ab) dotab        0.00
                       o<<<<< (ab) scat         0.00
                       o<<<<< (ab) sync         0.00
                       o<<<<< Density           0.00
                       o<<<<< Density one       0.00
                       o<<<<< Density two       0.00
                       o<<<<< Density ab        0.00
                       o<<<<< Spin adapt        0.20
                       o<<<<< Symm adapt        0.00

                       o<<<<< (ab) max sync:      0.00


       Final MCSCF results 
       ------------------- 

       Total MCSCF energy =    -76.147994540916
            Gradient norm =      7.1D-05

    CPU time for solution =      3.7s
   Wall time for solution =      6.8s



                        Analysis of MCSCF natural orbitals
                        ----------------------------------

 Vector    1  Occ=1.999988D+00  E=-2.054432D+01  Symmetry=a
              MO Center= -9.1D-02, -6.3D-02,  5.5D-08, r^2= 1.7D-02
   Bfn.  Coefficient  Atom+Function         Bfn.  Coefficient  Atom+Function  
  ----- ------------  ---------------      ----- ------------  ---------------
     1      0.971033  1 O  s          

 Vector    2  Occ=1.998923D+00  E=-1.341851D+00  Symmetry=a
              MO Center= -3.0D-01, -2.1D-01,  1.0D-04, r^2= 4.1D-01
   Bfn.  Coefficient  Atom+Function         Bfn.  Coefficient  Atom+Function  
  ----- ------------  ---------------      ----- ------------  ---------------
     2      0.511455  1 O  s                  4      0.389545  1 O  s          

 Vector    3  Occ=1.982183D+00  E=-7.363881D-01  Symmetry=a
              MO Center= -6.4D-02, -4.4D-02, -1.0D-04, r^2= 6.5D-01
   Bfn.  Coefficient  Atom+Function         Bfn.  Coefficient  Atom+Function  
  ----- ------------  ---------------      ----- ------------  ---------------
    10      0.430521  1 O  pz                13      0.389124  1 O  pz         
     7      0.358855  1 O  pz         

 Vector    4  Occ=1.976965D+00  E=-5.818116D-01  Symmetry=a
              MO Center=  2.2D-01,  1.5D-01, -4.2D-06, r^2= 6.3D-01
   Bfn.  Coefficient  Atom+Function         Bfn.  Coefficient  Atom+Function  
  ----- ------------  ---------------      ----- ------------  ---------------
     8      0.287049  1 O  px                 5      0.235573  1 O  px         
     9      0.198697  1 O  py                11      0.198354  1 O  px         
     6      0.163063  1 O  py                 2      0.151940  1 O  s          
    32      0.152006  2 H  s                 46      0.152077  3 H  s          

 Vector    5  Occ=1.976632D+00  E=-5.239627D-01  Symmetry=a
              MO Center=  8.1D-02,  5.7D-02, -6.5D-07, r^2= 7.8D-01
   Bfn.  Coefficient  Atom+Function         Bfn.  Coefficient  Atom+Function  
  ----- ------------  ---------------      ----- ------------  ---------------
     9      0.277423  1 O  py                 6      0.235171  1 O  py         
    32      0.220732  2 H  s                 46     -0.220686  3 H  s          
     8     -0.192098  1 O  px                 5     -0.162844  1 O  px         

 Vector    6  Occ=2.413932D-02  E=-2.620670D-02  Symmetry=a
              MO Center=  3.2D-01,  2.2D-01, -1.8D-05, r^2= 7.9D-01
   Bfn.  Coefficient  Atom+Function         Bfn.  Coefficient  Atom+Function  
  ----- ------------  ---------------      ----- ------------  ---------------
    32     -0.446621  2 H  s                 46     -0.446212  3 H  s          
     2      0.419936  1 O  s                  5      0.421836  1 O  px         
     8      0.325828  1 O  px                 6      0.292395  1 O  py         
     4      0.256991  1 O  s                  9      0.225873  1 O  py         
     3      0.211753  1 O  s                 31     -0.202532  2 H  s          

 Vector    7  Occ=2.368652D-02  E=-2.514346D-02  Symmetry=a
              MO Center=  1.6D-01,  1.1D-01, -4.5D-06, r^2= 9.1D-01
   Bfn.  Coefficient  Atom+Function         Bfn.  Coefficient  Atom+Function  
  ----- ------------  ---------------      ----- ------------  ---------------
    32     -0.485789  2 H  s                 46      0.486211  3 H  s          
     6      0.464860  1 O  py                 9      0.406047  1 O  py         
     5     -0.322274  1 O  px                 8     -0.281429  1 O  px         
    31     -0.217079  2 H  s                 45      0.217194  3 H  s          

 Vector    8  Occ=1.748222D-02  E=-1.601672D-02  Symmetry=a
              MO Center= -4.6D-03, -3.2D-03, -1.1D-04, r^2= 1.2D+00
   Bfn.  Coefficient  Atom+Function         Bfn.  Coefficient  Atom+Function  
  ----- ------------  ---------------      ----- ------------  ---------------
    13      0.776779  1 O  pz                 7     -0.648088  1 O  pz         
    10     -0.302917  1 O  pz         

 Vector    9  Occ=0.000000D+00  E= 2.956748D-01  Symmetry=a
              MO Center=  3.2D-01,  2.0D-01,  5.4D-05, r^2= 4.8D+00
   Bfn.  Coefficient  Atom+Function         Bfn.  Coefficient  Atom+Function  
  ----- ------------  ---------------      ----- ------------  ---------------
     4      2.273190  1 O  s                 47     -1.175781  3 H  s          
    33     -1.152848  2 H  s                 11      0.695329  1 O  px         
    12      0.475119  1 O  py                38      0.467600  2 H  py         
    51      0.436109  3 H  px                32     -0.246454  2 H  s          
    46     -0.243621  3 H  s                 52     -0.177774  3 H  py         

 Vector   10  Occ=0.000000D+00  E= 3.355025D-01  Symmetry=a
              MO Center=  5.1D-01,  3.7D-01,  3.5D-07, r^2= 5.6D+00
   Bfn.  Coefficient  Atom+Function         Bfn.  Coefficient  Atom+Function  
  ----- ------------  ---------------      ----- ------------  ---------------
    33      2.017752  2 H  s                 47     -2.004087  3 H  s          
    12     -0.656063  1 O  py                11      0.449196  1 O  px         
    46      0.346508  3 H  s                 32     -0.344735  2 H  s          
    38     -0.311970  2 H  py                51      0.301408  3 H  px         

 Vector   11  Occ=0.000000D+00  E= 6.120737D-01  Symmetry=a
              MO Center=  1.4D-01,  1.0D-01, -3.7D-05, r^2= 2.0D+00
   Bfn.  Coefficient  Atom+Function         Bfn.  Coefficient  Atom+Function  
  ----- ------------  ---------------      ----- ------------  ---------------
     4      3.134443  1 O  s                 32     -2.220002  2 H  s          
    46     -2.229727  3 H  s                 11      1.521508  1 O  px         
    12      1.045872  1 O  py                51      0.588245  3 H  px         
    38      0.565049  2 H  py                21     -0.192851  1 O  d  0       
    37      0.163742  2 H  px         

 Vector   12  Occ=0.000000D+00  E= 6.590722D-01  Symmetry=a
              MO Center= -3.0D-01, -2.1D-01,  2.2D-06, r^2= 2.5D+00
   Bfn.  Coefficient  Atom+Function         Bfn.  Coefficient  Atom+Function  
  ----- ------------  ---------------      ----- ------------  ---------------
    12      2.444343  1 O  py                32     -2.043136  2 H  s          
    46      2.030120  3 H  s                 11     -1.686042  1 O  px         
    33     -0.810321  2 H  s                 47      0.809228  3 H  s          
    38      0.685887  2 H  py                51     -0.619626  3 H  px         
    23     -0.351584  1 O  d  2              52      0.288670  3 H  py         

 Vector   13  Occ=0.000000D+00  E= 8.109200D-01  Symmetry=a
              MO Center= -1.8D-01, -1.2D-01, -6.4D-06, r^2= 2.2D+00
   Bfn.  Coefficient  Atom+Function         Bfn.  Coefficient  Atom+Function  
  ----- ------------  ---------------      ----- ------------  ---------------
     4      1.906768  1 O  s                 11      1.658063  1 O  px         
    32     -1.464082  2 H  s                 46     -1.463310  3 H  s          
    12      1.148926  1 O  py                52     -1.010611  3 H  py         
    37     -0.912273  2 H  px                38      0.445570  2 H  py         
     2      0.186774  1 O  s          

 Vector   14  Occ=0.000000D+00  E= 8.433034D-01  Symmetry=a
              MO Center=  3.6D-01,  2.5D-01,  2.9D-06, r^2= 1.7D+00
   Bfn.  Coefficient  Atom+Function         Bfn.  Coefficient  Atom+Function  
  ----- ------------  ---------------      ----- ------------  ---------------
    39      0.828383  2 H  pz                53     -0.828566  3 H  pz         

 Vector   15  Occ=0.000000D+00  E= 9.735457D-01  Symmetry=a
              MO Center=  7.8D-02,  5.4D-02,  3.0D-05, r^2= 2.1D+00
   Bfn.  Coefficient  Atom+Function         Bfn.  Coefficient  Atom+Function  
  ----- ------------  ---------------      ----- ------------  ---------------
    13      1.295883  1 O  pz                39     -0.995609  2 H  pz         
    53     -0.995441  3 H  pz         

 Vector   16  Occ=0.000000D+00  E= 1.132704D+00  Symmetry=a
              MO Center= -1.4D-01, -9.6D-02,  1.0D-04, r^2= 2.0D+00
   Bfn.  Coefficient  Atom+Function         Bfn.  Coefficient  Atom+Function  
  ----- ------------  ---------------      ----- ------------  ---------------
     4      7.218735  1 O  s                 32     -2.985067  2 H  s          
    46     -2.990501  3 H  s                 38      1.498713  2 H  py         
    11      1.427192  1 O  px                51      1.334117  3 H  px         
    12      0.983267  1 O  py                 2     -0.844609  1 O  s          
     8      0.826152  1 O  px                52     -0.724387  3 H  py         

 Vector   17  Occ=0.000000D+00  E= 1.167735D+00  Symmetry=a
              MO Center=  2.6D-01,  1.8D-01,  3.6D-07, r^2= 2.2D+00
   Bfn.  Coefficient  Atom+Function         Bfn.  Coefficient  Atom+Function  
  ----- ------------  ---------------      ----- ------------  ---------------
    12      1.593534  1 O  py                37      1.141626  2 H  px         
    32     -1.118289  2 H  s                 46      1.115116  3 H  s          
    11     -1.102372  1 O  px                52     -0.984453  3 H  py         
    51     -0.626044  3 H  px                38      0.241368  2 H  py         
    33     -0.174862  2 H  s                 47      0.174133  3 H  s          

 Vector   18  Occ=0.000000D+00  E= 1.372567D+00  Symmetry=a
              MO Center=  5.3D-01,  3.6D-01,  4.0D-06, r^2= 2.2D+00
   Bfn.  Coefficient  Atom+Function         Bfn.  Coefficient  Atom+Function  
  ----- ------------  ---------------      ----- ------------  ---------------
     4      2.623061  1 O  s                 38      1.555228  2 H  py         
    51      1.496747  3 H  px                46     -1.068468  3 H  s          
    32     -1.058327  2 H  s                  2      0.807271  1 O  s          
    11      0.515110  1 O  px                52     -0.473503  3 H  py         
    47     -0.395081  3 H  s                 33     -0.388354  2 H  s          


 Wrote Lagrangian and 1- and 2-particle density matrices to ./H2O.mcpdm


     Multipole analysis of the density
     ---------------------------------

     L   x y z        total        nuclear
     -   - - -        -----        -------
     0   0 0 0     -0.000000     10.000000

     1   1 0 0      0.578369     -0.000000
     1   0 1 0      0.400496      0.000000
     1   0 0 1      0.000023      0.000000

     2   2 0 0     -4.128568      2.679864
     2   1 1 0     -0.809642     -1.325392
     2   1 0 1      0.000005      0.000000
     2   0 2 0     -3.519905      3.676223
     2   0 1 1      0.000003      0.000000
     2   0 0 2     -5.520823      0.000000


  Mulliken analysis of the total density
  --------------------------------------

    Atom       Charge   Shell Charges
 -----------   ------   -------------------------------------------------------
    1 O    8     8.48   1.95  1.00  0.23  0.60  1.29  2.09  1.30  0.00  0.02  0.00
    2 H    1     0.76   0.25  0.38  0.05  0.02  0.06  0.01
    3 H    1     0.76   0.25  0.38  0.05  0.02  0.06  0.01

    Mulliken analysis of the active space density
    ---------------------------------------------

    Atom       Charge   Shell Charges
 -----------   ------   -------------------------------------------------------
    1 O    8     8.48   1.95  1.00  0.23  0.60  1.29  2.09  1.30  0.00  0.02  0.00
    2 H    1     0.76   0.25  0.38  0.05  0.02  0.06  0.01
    3 H    1     0.76   0.25  0.38  0.05  0.02  0.06  0.01

 Parallel integral file used      16 records with       0 large values


 Task  times  cpu:        3.8s     wall:        6.8s


                                NWChem Input Module
                                -------------------


                                 NWChem SCF Module
                                 -----------------


                                        H2O



  ao basis        = "ao basis"
  functions       =    58
  atoms           =     3
  closed shells   =     5
  open shells     =     0
  charge          =   0.00
  wavefunction    = RHF 
  input vectors   = ./h2o.mos
  output vectors  = ./h2o-trash.mos
  use symmetry    = F
  symmetry adapt  = F


 Summary of "ao basis" -> "ao basis" (spherical)
 ------------------------------------------------------------------------------
       Tag                 Description            Shells   Functions and Types
 ---------------- ------------------------------  ------  ---------------------
 O                          cc-pVTZ                 10       30   4s3p2d1f
 H                          cc-pVTZ                  6       14   3s2p1d



 Forming initial guess at       6.8s


 Loading old vectors from job with title :

H2O


 Starting SCF solution at       6.8s



 ----------------------------------------------
         Quadratically convergent ROHF

 Convergence threshold     :          1.000E-04
 Maximum no. of iterations :           30
 Final Fock-matrix accuracy:          1.000E-07
 ----------------------------------------------


 Integral file          = ./H2O.aoints.0
 Record size in doubles =  65536        No. of integs per rec  =  43688
 Max. records in memory =     49        Max. records in file   = 250995
 No. of bits per label  =      8        No. of bits per value  =     64


 #quartets = 3.213D+04 #integrals = 6.608D+05 #direct =  0.0% #cached =100.0%



       Final RHF  results 
       ------------------ 

         Total SCF energy =    -76.053210297010
      One-electron energy =   -122.780581529932
      Two-electron energy =     37.718086596797
 Nuclear repulsion energy =      9.009284636125

        Time for solution =      0.1s


             Final eigenvalues
             -----------------

              1      
    1  -20.5443
    2   -1.3419
    3   -0.7364
    4   -0.5818
    5   -0.5240
    6   -0.0262
    7   -0.0251
    8   -0.0160
    9    0.2957
   10    0.3355
   11    0.6121
   12    0.6591
   13    0.8109
   14    0.8433
   15    0.9735

                       ROHF Final Molecular Orbital Analysis
                       -------------------------------------

 Vector    2  Occ=2.000000D+00  E=-1.341851D+00
              MO Center= -3.0D-01, -2.1D-01,  1.0D-04, r^2= 4.1D-01
   Bfn.  Coefficient  Atom+Function         Bfn.  Coefficient  Atom+Function  
  ----- ------------  ---------------      ----- ------------  ---------------
     2      0.511455  1 O  s                  4      0.389545  1 O  s          

 Vector    3  Occ=2.000000D+00  E=-7.363881D-01
              MO Center= -6.4D-02, -4.4D-02, -1.0D-04, r^2= 6.5D-01
   Bfn.  Coefficient  Atom+Function         Bfn.  Coefficient  Atom+Function  
  ----- ------------  ---------------      ----- ------------  ---------------
    10      0.430521  1 O  pz                13      0.389124  1 O  pz         
     7      0.358855  1 O  pz         

 Vector    4  Occ=2.000000D+00  E=-5.818116D-01
              MO Center=  2.2D-01,  1.5D-01, -4.2D-06, r^2= 6.3D-01
   Bfn.  Coefficient  Atom+Function         Bfn.  Coefficient  Atom+Function  
  ----- ------------  ---------------      ----- ------------  ---------------
     8      0.287049  1 O  px                 5      0.235573  1 O  px         
     9      0.198697  1 O  py                11      0.198354  1 O  px         
     6      0.163063  1 O  py                 2      0.151940  1 O  s          
    32      0.152006  2 H  s                 46      0.152077  3 H  s          

 Vector    5  Occ=2.000000D+00  E=-5.239627D-01
              MO Center=  8.1D-02,  5.7D-02, -6.5D-07, r^2= 7.8D-01
   Bfn.  Coefficient  Atom+Function         Bfn.  Coefficient  Atom+Function  
  ----- ------------  ---------------      ----- ------------  ---------------
     9      0.277423  1 O  py                 6      0.235171  1 O  py         
    32      0.220732  2 H  s                 46     -0.220686  3 H  s          
     8     -0.192098  1 O  px                 5     -0.162844  1 O  px         

 Vector    6  Occ=0.000000D+00  E=-2.620670D-02
              MO Center=  3.2D-01,  2.2D-01, -1.8D-05, r^2= 7.9D-01
   Bfn.  Coefficient  Atom+Function         Bfn.  Coefficient  Atom+Function  
  ----- ------------  ---------------      ----- ------------  ---------------
    32     -0.446621  2 H  s                 46     -0.446212  3 H  s          
     2      0.419936  1 O  s                  5      0.421836  1 O  px         
     8      0.325828  1 O  px                 6      0.292395  1 O  py         
     4      0.256991  1 O  s                  9      0.225873  1 O  py         
     3      0.211753  1 O  s                 31     -0.202532  2 H  s          

 Vector    7  Occ=0.000000D+00  E=-2.514346D-02
              MO Center=  1.6D-01,  1.1D-01, -4.5D-06, r^2= 9.1D-01
   Bfn.  Coefficient  Atom+Function         Bfn.  Coefficient  Atom+Function  
  ----- ------------  ---------------      ----- ------------  ---------------
    32     -0.485789  2 H  s                 46      0.486211  3 H  s          
     6      0.464860  1 O  py                 9      0.406047  1 O  py         
     5     -0.322274  1 O  px                 8     -0.281429  1 O  px         
    31     -0.217079  2 H  s                 45      0.217194  3 H  s          

 Vector    8  Occ=0.000000D+00  E=-1.601672D-02
              MO Center= -4.6D-03, -3.2D-03, -1.1D-04, r^2= 1.2D+00
   Bfn.  Coefficient  Atom+Function         Bfn.  Coefficient  Atom+Function  
  ----- ------------  ---------------      ----- ------------  ---------------
    13      0.776779  1 O  pz                 7     -0.648088  1 O  pz         
    10     -0.302917  1 O  pz         

 Vector    9  Occ=0.000000D+00  E= 2.956748D-01
              MO Center=  3.2D-01,  2.0D-01,  5.4D-05, r^2= 4.8D+00
   Bfn.  Coefficient  Atom+Function         Bfn.  Coefficient  Atom+Function  
  ----- ------------  ---------------      ----- ------------  ---------------
     4      2.273190  1 O  s                 47     -1.175781  3 H  s          
    33     -1.152848  2 H  s                 11      0.695329  1 O  px         
    12      0.475119  1 O  py                38      0.467600  2 H  py         
    51      0.436109  3 H  px                32     -0.246454  2 H  s          
    46     -0.243621  3 H  s                 52     -0.177774  3 H  py         

 Vector   10  Occ=0.000000D+00  E= 3.355025D-01
              MO Center=  5.1D-01,  3.7D-01,  3.5D-07, r^2= 5.6D+00
   Bfn.  Coefficient  Atom+Function         Bfn.  Coefficient  Atom+Function  
  ----- ------------  ---------------      ----- ------------  ---------------
    33      2.017752  2 H  s                 47     -2.004087  3 H  s          
    12     -0.656063  1 O  py                11      0.449196  1 O  px         
    46      0.346508  3 H  s                 32     -0.344735  2 H  s          
    38     -0.311970  2 H  py                51      0.301408  3 H  px         

 Vector   11  Occ=0.000000D+00  E= 6.120737D-01
              MO Center=  1.4D-01,  1.0D-01, -3.7D-05, r^2= 2.0D+00
   Bfn.  Coefficient  Atom+Function         Bfn.  Coefficient  Atom+Function  
  ----- ------------  ---------------      ----- ------------  ---------------
     4      3.134443  1 O  s                 32     -2.220002  2 H  s          
    46     -2.229727  3 H  s                 11      1.521508  1 O  px         
    12      1.045872  1 O  py                51      0.588245  3 H  px         
    38      0.565049  2 H  py                21     -0.192851  1 O  d  0       
    37      0.163742  2 H  px         

 Vector   12  Occ=0.000000D+00  E= 6.590722D-01
              MO Center= -3.0D-01, -2.1D-01,  2.2D-06, r^2= 2.5D+00
   Bfn.  Coefficient  Atom+Function         Bfn.  Coefficient  Atom+Function  
  ----- ------------  ---------------      ----- ------------  ---------------
    12      2.444343  1 O  py                32     -2.043136  2 H  s          
    46      2.030120  3 H  s                 11     -1.686042  1 O  px         
    33     -0.810321  2 H  s                 47      0.809228  3 H  s          
    38      0.685887  2 H  py                51     -0.619626  3 H  px         
    23     -0.351584  1 O  d  2              52      0.288670  3 H  py         

 Vector   13  Occ=0.000000D+00  E= 8.109200D-01
              MO Center= -1.8D-01, -1.2D-01, -6.4D-06, r^2= 2.2D+00
   Bfn.  Coefficient  Atom+Function         Bfn.  Coefficient  Atom+Function  
  ----- ------------  ---------------      ----- ------------  ---------------
     4      1.906768  1 O  s                 11      1.658063  1 O  px         
    32     -1.464082  2 H  s                 46     -1.463310  3 H  s          
    12      1.148926  1 O  py                52     -1.010611  3 H  py         
    37     -0.912273  2 H  px                38      0.445570  2 H  py         
     2      0.186774  1 O  s          

 Vector   14  Occ=0.000000D+00  E= 8.433034D-01
              MO Center=  3.6D-01,  2.5D-01,  2.9D-06, r^2= 1.7D+00
   Bfn.  Coefficient  Atom+Function         Bfn.  Coefficient  Atom+Function  
  ----- ------------  ---------------      ----- ------------  ---------------
    39      0.828383  2 H  pz                53     -0.828566  3 H  pz         

 Vector   15  Occ=0.000000D+00  E= 9.735457D-01
              MO Center=  7.8D-02,  5.4D-02,  3.0D-05, r^2= 2.1D+00
   Bfn.  Coefficient  Atom+Function         Bfn.  Coefficient  Atom+Function  
  ----- ------------  ---------------      ----- ------------  ---------------
    13      1.295883  1 O  pz                39     -0.995609  2 H  pz         
    53     -0.995441  3 H  pz         


 center of mass
 --------------
 x =  -0.07599894 y =  -0.05262424 z =   0.00000000

 moments of inertia (a.u.)
 ------------------
           3.768359752854           1.244245401391           0.000000000000
           1.244245401391           2.833002082974           0.000000000000
           0.000000000000           0.000000000000           6.601361835828

  Mulliken analysis of the total density
  --------------------------------------

    Atom       Charge   Shell Charges
 -----------   ------   -------------------------------------------------------
    1 O    8     8.49   1.95  1.00  0.23  0.60  1.28  2.11  1.30  0.00  0.02  0.00
    2 H    1     0.76   0.25  0.38  0.05  0.02  0.06  0.01
    3 H    1     0.76   0.25  0.38  0.05  0.02  0.06  0.01

       Multipole analysis of the density wrt the origin
       ------------------------------------------------

     L   x y z        total         open         nuclear
     -   - - -        -----         ----         -------
     0   0 0 0     -0.000000      0.000000     10.000000

     1   1 0 0      0.589262      0.000000     -0.000000
     1   0 1 0      0.408037      0.000000      0.000000
     1   0 0 1      0.000022      0.000000      0.000000

     2   2 0 0     -4.106092      0.000000      2.679864
     2   1 1 0     -0.816441      0.000000     -1.325392
     2   1 0 1      0.000007      0.000000      0.000000
     2   0 2 0     -3.492321      0.000000      3.676223
     2   0 1 1      0.000004      0.000000      0.000000
     2   0 0 2     -5.503823      0.000000      0.000000


 Parallel integral file used      16 records with       0 large values

 ------------------------------------
     Number of active orbitals      8
     Number of active alpha electrons      5
     Number of active beta electrons       5
 ------------------------------------
                   NWChem Extensible Many-Electron Theory Module
                   ---------------------------------------------

              ======================================================
                   This portion of the program was automatically
                  generated by a Tensor Contraction Engine (TCE).
                  The development of this portion of the program
                 and TCE was supported by US Department of Energy,
                Office of Science, Office of Basic Energy Science.
                      TCE is a product of Battelle and PNNL.
              Please cite: S.Hirata, J.Phys.Chem.A 107, 9887 (2003).
              ======================================================

                                        H2O


            General Information
            -------------------
      Number of processors :     1
         Wavefunction type : Restricted Hartree-Fock
          No. of electrons :    10
           Alpha electrons :     5
            Beta electrons :     5
           No. of orbitals :   116
            Alpha orbitals :    58
             Beta orbitals :    58
        Alpha frozen cores :     0
         Beta frozen cores :     0
     Alpha frozen virtuals :    50
      Beta frozen virtuals :    50
         Spin multiplicity : singlet 
    Number of AO functions :    58
       Number of AO shells :    22
        Use of symmetry is : off
      Symmetry adaption is : off
         Schwarz screening : 0.10D-09

          Correlation Information
          -----------------------
          Calculation type : Coupled-cluster singles & doubles                           
   Perturbative correction : none                                                        
            Max iterations :      300
        Residual threshold : 0.10D-06
     T(0) DIIS level shift : 0.00D+00
     L(0) DIIS level shift : 0.00D+00
     T(1) DIIS level shift : 0.00D+00
     L(1) DIIS level shift : 0.00D+00
     T(R) DIIS level shift : 0.00D+00
     T(I) DIIS level shift : 0.00D+00
   CC-T/L Amplitude update :  5-th order DIIS
                I/O scheme : Global Array Library
        L-threshold :  0.10D-06
        EOM-threshold :  0.10D-06
 no EOMCCSD initial starts read in
 TCE RESTART OPTIONS
 READ_INT:   F
 WRITE_INT:  F
 READ_TA:    F
 WRITE_TA:   F
 READ_XA:    F
 WRITE_XA:   F
 READ_IN3:   F
 WRITE_IN3:  F
 SLICE:      F
 D4D5:       F
 quantumc:   T
 qrotation:  F
 pwtce:      F
 qducc:      F
 nacto:                         0
 nrotv:                         0
 nrot:                          0

            Memory Information
            ------------------
          Available GA space size is    1610609372 doubles
          Available MA space size is    1610609772 doubles

 Maximum block size supplied by input
 Maximum block size         1 doubles

 tile_dim =      1

 Block   Spin    Irrep     Size     Offset   Alpha
 -------------------------------------------------
   1    alpha     a      1 doubles       0       1
   2    alpha     a      1 doubles       1       2
   3    alpha     a      1 doubles       2       3
   4    alpha     a      1 doubles       3       4
   5    alpha     a      1 doubles       4       5
   6    beta      a      1 doubles       5       1
   7    beta      a      1 doubles       6       2
   8    beta      a      1 doubles       7       3
   9    beta      a      1 doubles       8       4
  10    beta      a      1 doubles       9       5
  11    alpha     a      1 doubles      10      11
  12    alpha     a      1 doubles      11      12
  13    alpha     a      1 doubles      12      13
  14    beta      a      1 doubles      13      11
  15    beta      a      1 doubles      14      12
  16    beta      a      1 doubles      15      13

 Global array virtual files algorithm will be used

 Parallel file system coherency ......... OK

 Integral file          = ./H2O.aoints.0
 Record size in doubles =  65536        No. of integs per rec  =  43688
 Max. records in memory =     49        Max. records in file   = 250995
 No. of bits per label  =      8        No. of bits per value  =     64


 #quartets = 3.213D+04 #integrals = 6.608D+05 #direct =  0.0% #cached =100.0%


 Fock matrix recomputed
 1-e file size   =               64
 1-e file name   = ./H2O.f1
 Cpu & wall time / sec            0.1            0.1
 4-electron integrals stored in orbital form

 v2    file size   =              666
 4-index algorithm nr.  13 is used
 imaxsize =       30
 imaxsize ichop =        0
 begin_one_electron_integrals
    1    1       -32.8627601089
    2    1        -1.9885860053
    3    1        -0.0000573072
    4    1         0.2316314879
    5    1         0.0001683031
    6    1         0.3127325782
    7    1         0.0000718938
    8    1         0.0000799902
    1    2        -1.9885860053
    2    2        -7.8934803013
    3    2         0.0001042504
    4    2        -0.3417398637
    5    2        -0.0003811020
    6    2        -0.1137300617
    7    2         0.0000482778
    8    2         0.0000345202
    1    3        -0.0000573072
    2    3         0.0001042504
    3    3        -7.0068016201
    4    3         0.0000548254
    5    3         0.0000001580
    6    3         0.0000899685
    7    3         0.0000001615
    8    3         2.2276632504
    1    4         0.2316314879
    2    4        -0.3417398637
    3    4         0.0000548254
    4    4        -6.9474533435
    5    4        -0.0001623828
    6    4        -2.0758485327
    7    4         0.0013421935
    8    4         0.0001347616
    1    5         0.0001683031
    2    5        -0.0003811020
    3    5         0.0000001580
    4    5        -0.0001623828
    5    5        -6.6797953912
    6    5        -0.0012635152
    7    5        -2.0569049080
    8    5         0.0000005541
    1    6         0.3127325782
    2    6        -0.1137300617
    3    6         0.0000899685
    4    6        -2.0758485327
    5    6        -0.0012635152
    6    6        -6.1277666970
    7    6        -0.0000577525
    8    6         0.0000206223
    1    7         0.0000718938
    2    7         0.0000482778
    3    7         0.0000001615
    4    7         0.0013421935
    5    7        -2.0569049080
    6    7        -0.0000577525
    7    7        -6.2404130464
    8    7         0.0000003600
    1    8         0.0000799902
    2    8         0.0000345202
    3    8         2.2276632504
    4    8         0.0001347616
    5    8         0.0000005541
    6    8         0.0000206223
    7    8         0.0000003600
    8    8        -5.5491407826
 end_one_electron_integrals
 begin_two_electron_integrals
    1    1    1    1        4.8387610155
    2    1    1    1       -0.0574394653
    2    1    2    1        0.0161493910
    3    1    1    1        0.0000614251
    3    1    2    1        0.0000000176
    3    1    3    1        0.0254225452
    3    1    2    2        0.0000070178
    4    1    1    1       -0.1406533663
    4    1    2    1       -0.0012102688
    4    1    3    1       -0.0000018807
    4    1    4    1        0.0236742205
    4    1    2    2       -0.0174877681
    4    1    3    2        0.0000014667
    4    1    3    3       -0.0044822236
    5    1    1    1       -0.0001583306
    5    1    2    1        0.0000021933
    5    1    3    1       -0.0000000038
    5    1    4    1        0.0000050023
    5    1    5    1        0.0167525788
    5    1    2    2       -0.0000158794
    5    1    3    2       -0.0000000001
    5    1    4    2       -0.0000012132
    5    1    3    3       -0.0000064518
    5    1    4    3       -0.0000000002
    5    1    4    4       -0.0000043121
    6    1    1    1       -0.2505186178
    6    1    2    1        0.0006183003
    6    1    3    1       -0.0000048414
    6    1    4    1        0.0379187592
    6    1    5    1        0.0000262945
    6    1    6    1        0.0616272186
    6    1    2    2       -0.0295815738
    6    1    3    2        0.0000020449
    6    1    4    2        0.0218281678
    6    1    5    2        0.0000057533
    6    1    3    3       -0.0059999855
    6    1    4    3       -0.0000034646
    6    1    5    3       -0.0000000008
    6    1    4    4        0.0138075786
    6    1    5    4        0.0000137373
    6    1    5    5        0.0005406044
    7    1    1    1       -0.0000582129
    7    1    2    1        0.0000015426
    7    1    3    1        0.0000000019
    7    1    4    1       -0.0000169799
    7    1    5    1        0.0283413432
    7    1    6    1        0.0000023996
    7    1    7    1        0.0487739201
    7    1    2    2       -0.0000037035
    7    1    3    2        0.0000000042
    7    1    4    2       -0.0000223015
    7    1    5    2        0.0277778809
    7    1    6    2       -0.0000014351
    7    1    3    3       -0.0000014561
    7    1    4    3        0.0000000041
    7    1    5    3       -0.0000039803
    7    1    6    3        0.0000000031
    7    1    4    4       -0.0000181632
    7    1    5    4        0.0142769271
    7    1    6    4       -0.0000072130
    7    1    5    5        0.0000171650
    7    1    6    5        0.0078885191
    7    1    6    6       -0.0000028435
    8    1    1    1       -0.0000655315
    8    1    2    1       -0.0000003997
    8    1    3    1       -0.0373318247
    8    1    4    1        0.0000002754
    8    1    5    1        0.0000000015
    8    1    6    1        0.0000028951
    8    1    7    1       -0.0000000071
    8    1    8    1        0.0559468391
    8    1    2    2       -0.0000088927
    8    1    3    2       -0.0360163430
    8    1    4    2       -0.0000041753
    8    1    5    2       -0.0000000038
    8    1    6    2       -0.0000036732
    8    1    7    2        0.0000000012
    8    1    3    3        0.0000089292
    8    1    4    3       -0.0113676055
    8    1    5    3       -0.0000127204
    8    1    6    3       -0.0141359056
    8    1    7    3       -0.0000005955
    8    1    4    4       -0.0000036385
    8    1    5    4       -0.0000000029
    8    1    6    4       -0.0000029786
    8    1    7    4       -0.0000000028
    8    1    5    5       -0.0000016739
    8    1    6    5       -0.0000000026
    8    1    7    5       -0.0000009902
    8    1    6    6       -0.0000047227
    8    1    7    6       -0.0000000071
    8    1    7    7       -0.0000022815
    2    2    1    1        1.0549090442
    2    2    2    1        0.0223536104
    2    2    2    2        0.8534209585
    3    2    1    1       -0.0000064082
    3    2    2    1        0.0000008342
    3    2    3    1        0.0191236173
    3    2    2    2        0.0000195718
    3    2    3    2        0.1301371108
    4    2    1    1       -0.0118836523
    4    2    2    1       -0.0028129279
    4    2    3    1        0.0000010287
    4    2    4    1        0.0120934882
    4    2    2    2       -0.0667964545
    4    2    3    2        0.0000166813
    4    2    4    2        0.0680792506
    4    2    3    3        0.0132454950
    5    2    1    1        0.0000567958
    5    2    2    1        0.0000005664
    5    2    3    1       -0.0000000004
    5    2    4    1       -0.0000032194
    5    2    5    1        0.0125527721
    5    2    2    2       -0.0000113746
    5    2    3    2        0.0000000083
    5    2    4    2       -0.0000590800
    5    2    5    2        0.1027336637
    5    2    3    3        0.0000351616
    5    2    4    3        0.0000000051
    5    2    4    4       -0.0000179308
    6    2    1    1        0.0167574706
    6    2    2    1       -0.0032367247
    6    2    3    1        0.0000013895
    6    2    4    1        0.0120657110
    6    2    5    1        0.0000055246
    6    2    6    1        0.0188489016
    6    2    2    2       -0.0297022392
    6    2    3    2        0.0000109409
    6    2    4    2        0.0385811127
    6    2    5    2        0.0000217876
    6    2    6    2        0.0318867166
    6    2    3    3        0.0201821403
    6    2    4    3       -0.0000027061
    6    2    5    3       -0.0000000032
    6    2    4    4        0.0338445652
    6    2    5    4        0.0000323882
    6    2    5    5        0.0149663667
    7    2    1    1       -0.0000028285
    7    2    2    1        0.0000000689
    7    2    3    1       -0.0000000020
    7    2    4    1       -0.0000114539
    7    2    5    1        0.0164646789
    7    2    6    1       -0.0000002877
    7    2    7    1        0.0298379837
    7    2    2    2       -0.0000338996
    7    2    3    2       -0.0000000212
    7    2    4    2       -0.0000375362
    7    2    5    2        0.0707437428
    7    2    6    2        0.0000005375
    7    2    7    2        0.0679177235
    7    2    3    3       -0.0000109206
    7    2    4    3        0.0000000029
    7    2    5    3       -0.0000084693
    7    2    6    3       -0.0000000005
    7    2    4    4       -0.0000161754
    7    2    5    4        0.0220199171
    7    2    6    4       -0.0000203257
    7    2    5    5        0.0000488309
    7    2    6    5        0.0134115274
    7    2    6    6        0.0000148946
    8    2    1    1       -0.0000078831
    8    2    2    1       -0.0000015599
    8    2    3    1       -0.0191455572
    8    2    4    1       -0.0000020267
    8    2    5    1       -0.0000000036
    8    2    6    1       -0.0000021072
    8    2    7    1       -0.0000000083
    8    2    8    1        0.0277172643
    8    2    2    2       -0.0000145701
    8    2    3    2       -0.0527272192
    8    2    4    2       -0.0000054645
    8    2    5    2       -0.0000000177
    8    2    6    2       -0.0000064482
    8    2    7    2       -0.0000000065
    8    2    8    2        0.0451425229
    8    2    3    3        0.0000114152
    8    2    4    3       -0.0096095437
    8    2    5    3       -0.0000206454
    8    2    6    3       -0.0174467475
    8    2    7    3       -0.0000027591
    8    2    4    4       -0.0000040061
    8    2    5    4       -0.0000000087
    8    2    6    4       -0.0000040334
    8    2    7    4       -0.0000000057
    8    2    5    5       -0.0000029064
    8    2    6    5       -0.0000000084
    8    2    7    5       -0.0000011479
    8    2    6    6       -0.0000036815
    8    2    7    6       -0.0000000105
    8    2    7    7       -0.0000004908
    3    3    1    1        1.0240107290
    3    3    2    1        0.0193289926
    3    3    3    1       -0.0000041262
    3    3    2    2        0.7209776143
    3    3    3    2       -0.0000365029
    3    3    3    3        0.7394621487
    4    3    1    1       -0.0000013860
    4    3    2    1        0.0000009215
    4    3    3    1        0.0065471634
    4    3    4    1       -0.0000021062
    4    3    2    2        0.0000191397
    4    3    3    2        0.0323920938
    4    3    4    2       -0.0000035235
    4    3    3    3       -0.0000123914
    4    3    4    3        0.0428653057
    5    3    1    1       -0.0000000350
    5    3    2    1       -0.0000000003
    5    3    3    1        0.0000074150
    5    3    4    1        0.0000000004
    5    3    5    1       -0.0000020732
    5    3    2    2        0.0000000024
    5    3    3    2        0.0000371324
    5    3    4    2        0.0000000061
    5    3    5    2       -0.0000101399
    5    3    3    3       -0.0000000268
    5    3    4    3        0.0000124786
    5    3    5    3        0.0296080534
    5    3    4    4       -0.0000000119
    6    3    1    1       -0.0000227328
    6    3    2    1        0.0000010791
    6    3    3    1        0.0096134585
    6    3    4    1       -0.0000016483
    6    3    6    1       -0.0000029303
    6    3    2    2        0.0000067571
    6    3    3    2        0.0266690097
    6    3    4    2       -0.0000029809
    6    3    5    2       -0.0000000053
    6    3    6    2       -0.0000016506
    6    3    3    3       -0.0000172228
    6    3    4    3        0.0231324929
    6    3    5    3        0.0000188484
    6    3    6    3        0.0287456705
    6    3    4    4       -0.0000108213
    6    3    5    4       -0.0000000096
    6    3    5    5       -0.0000073623
    7    3    1    1       -0.0000000227
    7    3    2    1       -0.0000000007
    7    3    3    1        0.0000010993
    7    3    4    1        0.0000000039
    7    3    5    1       -0.0000025201
    7    3    6    1        0.0000000044
    7    3    7    1       -0.0000046545
    7    3    2    2       -0.0000000390
    7    3    3    2       -0.0000103511
    7    3    4    2        0.0000000168
    7    3    5    2       -0.0000096163
    7    3    6    2        0.0000000065
    7    3    7    2       -0.0000082766
    7    3    3    3       -0.0000000185
    7    3    4    3       -0.0000125656
    7    3    5    3        0.0159400135
    7    3    6    3       -0.0000002528
    7    3    7    3        0.0202111724
    7    3    4    4        0.0000000024
    7    3    5    4       -0.0000046424
    7    3    6    4       -0.0000000027
    7    3    5    5       -0.0000000228
    7    3    6    5       -0.0000018962
    7    3    6    6       -0.0000000032
    8    3    1    1       -0.5402508897
    8    3    2    1       -0.0175571068
    8    3    3    1        0.0000031126
    8    3    4    1        0.0054935436
    8    3    5    1        0.0000057090
    8    3    6    1        0.0093243372
    8    3    7    1       -0.0000009402
    8    3    8    1       -0.0000057056
    8    3    2    2       -0.2178737302
    8    3    3    2        0.0000153641
    8    3    4    2        0.0041915203
    8    3    5    2       -0.0000310094
    8    3    6    2       -0.0110643453
    8    3    7    2       -0.0000040052
    8    3    8    2       -0.0000088640
    8    3    3    3       -0.2097231328
    8    3    4    3        0.0000018613
    8    3    5    3        0.0000000150
    8    3    6    3        0.0000112140
    8    3    7    3        0.0000000121
    8    3    8    3        0.1683142967
    8    3    4    4       -0.1533981746
    8    3    5    4       -0.0000060005
    8    3    6    4       -0.1273201733
    8    3    7    4        0.0000801563
    8    3    5    5       -0.1452149665
    8    3    6    5       -0.0000779314
    8    3    7    5       -0.1261517249
    8    3    6    6       -0.1796503846
    8    3    7    6       -0.0000085016
    8    3    7    7       -0.1888224767
    4    4    1    1        0.9209459414
    4    4    2    1        0.0141156189
    4    4    3    1        0.0000017992
    4    4    4    1        0.0068708313
    4    4    2    2        0.6172052198
    4    4    3    2        0.0000032434
    4    4    4    2        0.0615725240
    4    4    3    3        0.6363981925
    4    4    4    3       -0.0000090978
    4    4    4    4        0.7347353329
    5    4    1    1        0.0000079817
    5    4    2    1       -0.0000008617
    5    4    3    1       -0.0000000001
    5    4    4    1        0.0000066291
    5    4    5    1        0.0052433954
    5    4    2    2       -0.0000641134
    5    4    3    2        0.0000000099
    5    4    4    2       -0.0000152129
    5    4    5    2        0.0606410956
    5    4    3    3        0.0000082022
    5    4    4    3       -0.0000000018
    5    4    5    3       -0.0000081392
    5    4    4    4        0.0000039776
    5    4    5    4        0.0951145835
    6    4    1    1        0.4925525187
    6    4    2    1        0.0113293456
    6    4    3    1        0.0000022378
    6    4    4    1        0.0060823970
    6    4    5    1       -0.0000047019
    6    4    6    1        0.0066732702
    6    4    2    2        0.1915242941
    6    4    3    2       -0.0000020538
    6    4    4    2        0.0082180960
    6    4    5    2        0.0000234865
    6    4    6    2        0.0252606099
    6    4    3    3        0.1852839688
    6    4    4    3       -0.0000024393
    6    4    5    3       -0.0000000110
    6    4    6    3       -0.0000084559
    6    4    4    4        0.1685868295
    6    4    5    4        0.0000090158
    6    4    6    4        0.1825118419
    6    4    5    5        0.1222550750
    7    4    1    1       -0.0003113192
    7    4    2    1       -0.0000114672
    7    4    3    1        0.0000000011
    7    4    4    1       -0.0000008959
    7    4    5    1        0.0053167372
    7    4    6    1        0.0000058628
    7    4    7    1        0.0059616277
    7    4    2    2       -0.0001274099
    7    4    3    2        0.0000000124
    7    4    4    2        0.0000092783
    7    4    5    2       -0.0087430367
    7    4    6    2       -0.0000183352
    7    4    7    2        0.0082574901
    7    4    3    3       -0.0001189354
    7    4    4    3        0.0000000072
    7    4    5    3        0.0000005590
    7    4    6    3        0.0000000111
    7    4    7    3       -0.0000009300
    7    4    4    4       -0.0000952630
    7    4    5    4       -0.0198341337
    7    4    6    4       -0.0000924282
    7    4    7    4        0.0444774858
    7    4    5    5       -0.0000969174
    7    4    6    5        0.0483156861
    7    4    6    6       -0.0001286454
    8    4    1    1       -0.0000290574
    8    4    2    1       -0.0000021444
    8    4    3    1       -0.0049165075
    8    4    4    1        0.0000009701
    8    4    5    1       -0.0000000007
    8    4    6    1        0.0000016768
    8    4    7    1       -0.0000000043
    8    4    8    1        0.0060227468
    8    4    2    2       -0.0000147507
    8    4    3    2       -0.0017623777
    8    4    4    2        0.0000001270
    8    4    5    2       -0.0000000126
    8    4    6    2       -0.0000009833
    8    4    7    2       -0.0000000063
    8    4    8    2        0.0067281613
    8    4    3    3       -0.0000105273
    8    4    4    3       -0.0053419100
    8    4    5    3       -0.0000023653
    8    4    6    3       -0.0191095500
    8    4    7    3        0.0000078870
    8    4    8    3        0.0000053258
    8    4    4    4       -0.0000110500
    8    4    5    4       -0.0000000219
    8    4    6    4       -0.0000069019
    8    4    7    4        0.0000000083
    8    4    8    4        0.0186650253
    8    4    5    5       -0.0000105602
    8    4    6    5       -0.0000000031
    8    4    7    5       -0.0000062645
    8    4    6    6       -0.0000110191
    8    4    7    6       -0.0000000210
    8    4    7    7       -0.0000118054
    5    5    1    1        0.8777041054
    5    5    2    1        0.0147258333
    5    5    3    1        0.0000014224
    5    5    4    1       -0.0022019259
    5    5    5    1        0.0000070188
    5    5    2    2        0.6408054635
    5    5    3    2       -0.0000031952
    5    5    4    2        0.0393995305
    5    5    5    2        0.0000834760
    5    5    3    3        0.6148966333
    5    5    4    3       -0.0000054893
    5    5    5    3       -0.0000000241
    5    5    4    4        0.6394667518
    5    5    5    4        0.0000788522
    5    5    5    5        0.6635017673
    6    5    1    1        0.0002997000
    6    5    2    1        0.0000046741
    6    5    3    1        0.0000000023
    6    5    4    1        0.0000006461
    6    5    5    1        0.0067839084
    6    5    6    1        0.0000074521
    6    5    2    2        0.0001205422
    6    5    3    2       -0.0000000062
    6    5    4    2        0.0000187645
    6    5    5    2       -0.0082096206
    6    5    6    2        0.0000092607
    6    5    3    3        0.0001147929
    6    5    4    3       -0.0000000059
    6    5    5    3        0.0000005827
    6    5    6    3        0.0000000001
    6    5    4    4        0.0001011510
    6    5    5    4       -0.0250076509
    6    5    6    4        0.0001095542
    6    5    5    5        0.0000694942
    6    5    6    5        0.0538716530
    7    5    1    1        0.4823033344
    7    5    2    1        0.0149358035
    7    5    3    1        0.0000016923
    7    5    4    1       -0.0041061428
    7    5    5    1        0.0000004871
    7    5    6    1       -0.0088112492
    7    5    7    1        0.0000137496
    7    5    2    2        0.2249216710
    7    5    3    2       -0.0000077445
    7    5    4    2       -0.0142136304
    7    5    5    2        0.0000576605
    7    5    6    2        0.0110758120
    7    5    7    2        0.0000102044
    7    5    3    3        0.1826787768
    7    5    4    3        0.0000008655
    7    5    5    3       -0.0000000158
    7    5    6    3       -0.0000053463
    7    5    7    3       -0.0000000187
    7    5    4    4        0.1209416150
    7    5    5    4        0.0000062049
    7    5    6    4        0.1425454898
    7    5    7    4       -0.0000956245
    7    5    5    5        0.1347424115
    7    5    6    5        0.0000965203
    7    5    7    5        0.1732793503
    7    5    6    6        0.1300504181
    8    5    1    1       -0.0000000923
    8    5    2    1       -0.0000000043
    8    5    3    1       -0.0000072625
    8    5    4    1       -0.0000000005
    8    5    5    1        0.0000011423
    8    5    6    1       -0.0000000005
    8    5    7    1        0.0000016809
    8    5    8    1        0.0000114720
    8    5    2    2       -0.0000000580
    8    5    3    2       -0.0000236560
    8    5    4    2       -0.0000000109
    8    5    5    2       -0.0000009164
    8    5    6    2       -0.0000000089
    8    5    7    2        0.0000008687
    8    5    8    2        0.0000143423
    8    5    3    3       -0.0000000421
    8    5    4    3       -0.0000064770
    8    5    5    3       -0.0041180998
    8    5    6    3       -0.0000167579
    8    5    7    3       -0.0150942594
    8    5    8    3        0.0000000242
    8    5    4    4       -0.0000000688
    8    5    5    4       -0.0000025053
    8    5    6    4       -0.0000000231
    8    5    7    4        0.0000009860
    8    5    8    4        0.0000026050
    8    5    5    5       -0.0000000618
    8    5    6    5        0.0000021210
    8    5    7    5       -0.0000000222
    8    5    8    5        0.0150395301
    8    5    6    6       -0.0000000627
    8    5    7    6       -0.0000016690
    8    5    7    7       -0.0000000604
    6    6    1    1        1.0763750458
    6    6    2    1        0.0165138215
    6    6    3    1        0.0000027670
    6    6    4    1        0.0081995950
    6    6    5    1        0.0000011571
    6    6    6    1        0.0146480435
    6    6    2    2        0.6023343707
    6    6    3    2        0.0000014651
    6    6    4    2        0.0605609447
    6    6    5    2        0.0000512648
    6    6    6    2        0.0375560125
    6    6    3    3        0.6306698480
    6    6    4    3       -0.0000115108
    6    6    5    3       -0.0000000176
    6    6    6    3       -0.0000142244
    6    6    4    4        0.7113440776
    6    6    5    4        0.0001085992
    6    6    6    4        0.1852528599
    6    6    5    5        0.6303180250
    6    6    6    5        0.0000779210
    6    6    6    6        0.7398405374
    7    6    1    1        0.0000097275
    7    6    2    1       -0.0000000005
    7    6    3    1        0.0000000031
    7    6    4    1       -0.0000024161
    7    6    5    1        0.0080105526
    7    6    6    1        0.0000019352
    7    6    7    1        0.0182051000
    7    6    2    2       -0.0000203105
    7    6    3    2        0.0000000145
    7    6    4    2       -0.0000406281
    7    6    5    2        0.0574746762
    7    6    6    2        0.0000166359
    7    6    7    2        0.0230835597
    7    6    3    3        0.0000052013
    7    6    4    3        0.0000000083
    7    6    5    3       -0.0000084520
    7    6    6    3       -0.0000000013
    7    6    7    3       -0.0000054250
    7    6    4    4       -0.0000501771
    7    6    5    4        0.0893751720
    7    6    6    4       -0.0000161886
    7    6    7    4       -0.0244887601
    7    6    5    5        0.0000881242
    7    6    6    5       -0.0303176195
    7    6    7    5        0.0000307364
    7    6    6    6        0.0000639329
    7    6    7    6        0.1018502886
    8    6    1    1       -0.0000047405
    8    6    2    1       -0.0000018440
    8    6    3    1       -0.0100087741
    8    6    4    1        0.0000011441
    8    6    5    1       -0.0000000006
    8    6    6    1        0.0000019306
    8    6    7    1       -0.0000000058
    8    6    8    1        0.0161951433
    8    6    2    2       -0.0000149172
    8    6    3    2       -0.0359625889
    8    6    4    2       -0.0000017936
    8    6    5    2       -0.0000000133
    8    6    6    2       -0.0000004300
    8    6    7    2       -0.0000000038
    8    6    8    2        0.0140234392
    8    6    3    3        0.0000125410
    8    6    4    3       -0.0347814573
    8    6    5    3       -0.0000273950
    8    6    6    3       -0.0223722124
    8    6    7    3        0.0000009433
    8    6    8    3       -0.0000027659
    8    6    4    4       -0.0000021806
    8    6    5    4       -0.0000000094
    8    6    6    4       -0.0000008014
    8    6    7    4       -0.0000000086
    8    6    8    4        0.0075113631
    8    6    5    5        0.0000003790
    8    6    6    5        0.0000000015
    8    6    7    5       -0.0000006586
    8    6    8    5        0.0000125311
    8    6    6    6        0.0000001855
    8    6    7    6       -0.0000000153
    8    6    8    6        0.0380717824
    8    6    7    7       -0.0000005147
    7    7    1    1        1.0987036237
    7    7    2    1        0.0230589146
    7    7    3    1        0.0000023997
    7    7    4    1       -0.0071171821
    7    7    5    1       -0.0000026166
    7    7    6    1       -0.0085375321
    7    7    7    1        0.0000013563
    7    7    2    2        0.6686872265
    7    7    3    2       -0.0000064746
    7    7    4    2        0.0252855700
    7    7    5    2        0.0000093176
    7    7    6    2        0.0130206543
    7    7    7    2        0.0000240741
    7    7    3    3        0.6362811021
    7    7    4    3       -0.0000043498
    7    7    5    3       -0.0000000197
    7    7    6    3       -0.0000092003
    7    7    7    3       -0.0000000188
    7    7    4    4        0.6439789645
    7    7    5    4       -0.0000416282
    7    7    6    4        0.1505145242
    7    7    7    4       -0.0000881851
    7    7    5    5        0.6624704788
    7    7    6    5        0.0001263446
    7    7    7    5        0.1733504354
    7    7    6    6        0.6675953374
    7    7    7    6       -0.0000300875
    7    7    7    7        0.7156451916
    8    7    1    1       -0.0000000947
    8    7    2    1       -0.0000000029
    8    7    3    1       -0.0000030930
    8    7    4    1       -0.0000000010
    8    7    5    1        0.0000020533
    8    7    6    1        0.0000000001
    8    7    7    1        0.0000035572
    8    7    8    1        0.0000054624
    8    7    2    2       -0.0000000412
    8    7    3    2       -0.0000124402
    8    7    4    2       -0.0000000025
    8    7    5    2        0.0000046196
    8    7    6    2       -0.0000000019
    8    7    7    2        0.0000052969
    8    7    8    2        0.0000095351
    8    7    3    3       -0.0000000203
    8    7    4    3        0.0000103378
    8    7    5    3       -0.0227281770
    8    7    6    3       -0.0000037096
    8    7    7    3       -0.0152500202
    8    7    8    3        0.0000000240
    8    7    4    4       -0.0000000166
    8    7    5    4        0.0000023719
    8    7    6    4       -0.0000000279
    8    7    7    4       -0.0000001955
    8    7    8    4       -0.0000027060
    8    7    5    5       -0.0000000247
    8    7    6    5        0.0000001492
    8    7    7    5       -0.0000000261
    8    7    8    5        0.0066843120
    8    7    6    6       -0.0000000267
    8    7    7    6        0.0000032125
    8    7    8    6        0.0000050007
    8    7    7    7       -0.0000000317
    8    7    8    7        0.0250710867
    8    8    1    1        1.0685563739
    8    8    2    1        0.0212064545
    8    8    3    1       -0.0000031068
    8    8    4    1       -0.0076240306
    8    8    5    1       -0.0000071162
    8    8    6    1       -0.0111232906
    8    8    7    1        0.0000002619
    8    8    8    1        0.0000071918
    8    8    2    2        0.6384540492
    8    8    3    2       -0.0000259036
    8    8    4    2        0.0104722441
    8    8    5    2        0.0000312315
    8    8    6    2        0.0151960879
    8    8    7    2        0.0000020982
    8    8    8    2        0.0000090961
    8    8    3    3        0.6569822911
    8    8    4    3       -0.0000067817
    8    8    5    3       -0.0000000099
    8    8    6    3       -0.0000128424
    8    8    7    3       -0.0000000083
    8    8    8    3       -0.1960714956
    8    8    4    4        0.5800065223
    8    8    5    4        0.0000078151
    8    8    6    4        0.1653967128
    8    8    7    4       -0.0001040045
    8    8    8    4       -0.0000105338
    8    8    5    5        0.5601242975
    8    8    6    5        0.0001057416
    8    8    7    5        0.1627820719
    8    8    8    5       -0.0000000331
    8    8    6    6        0.5962111093
    8    8    7    6        0.0000049024
    8    8    8    6        0.0000075496
    8    8    7    7        0.6002696497
    8    8    8    7       -0.0000000292
    8    8    8    8        0.6264870151
 end_two_electron_integrals
 enrep_tce =    9.0092846361252885     
  EHF(A)             =       -76.05321030
  EHF(total)         =       -76.05321030
  Shift (HFtot-HFA)  =        -0.00000000
 Cpu & wall time / sec            1.0            1.0
 T1-number-of-tasks                   15

 t1 file size   =               15
 t1 file name   = ./H2O.t1
 t1 file handle =       -998
 T2-number-of-boxes                  315

 t2 file size   =              315
 t2 file name   = ./H2O.t2
 t2 file handle =       -996
CCSD iterations
 ---------------------------------------------------------
 Iter          Residuum       Correlation     Cpu    Wall 
 ---------------------------------------------------------
NEW TASK SCHEDULING
CCSD_T1_NTS --- OK
CCSD_T2_NTS --- OK
    1   0.8138568001345  -0.2412025294954     1.9     2.6
    2   1.3990668299689   0.1516824206743     2.0     2.7
    3   2.4407618664687  -0.5222937378724     1.9     2.6
    4   4.4087724809491   0.6403080261752     1.8     2.5
    5   7.3553774621123  -1.4047600163576     1.7     2.5
 MICROCYCLE DIIS UPDATE:                    5                    5
    6   0.0217127446453  -0.0909104755476     2.0     2.6
    7   0.0314723899062  -0.0993760795410     1.8     2.5
    8   0.0553137091055  -0.0841490797596     1.8     2.5
    9   0.1037911735440  -0.1077639704138     1.8     2.5
   10   0.1953978496121  -0.0501557729450     1.9     2.5
 MICROCYCLE DIIS UPDATE:                   10                    5
   11   0.0005331254740  -0.0942851077912     1.8     2.6
   12   0.0006875424486  -0.0943612113123     1.8     2.6
   13   0.0013198886788  -0.0942808420710     1.8     2.6
   14   0.0025386633478  -0.0943212188066     1.7     2.6
   15   0.0048838760747  -0.0943914336356     1.7     2.5
 MICROCYCLE DIIS UPDATE:                   15                    5
   16   0.0000094380847  -0.0943202741796     1.8     2.5
   17   0.0000082038415  -0.0943199895182     1.7     2.6
   18   0.0000103185865  -0.0943212272434     1.8     2.6
   19   0.0000161510259  -0.0943183785820     1.8     2.5
   20   0.0000275511545  -0.0943241229392     1.9     2.6
 MICROCYCLE DIIS UPDATE:                   20                    5
   21   0.0000001932423  -0.0943203225267     1.9     2.6
   22   0.0000001698050  -0.0943203194522     1.8     2.5
   23   0.0000002881056  -0.0943203299712     1.7     2.5
   24   0.0000005537321  -0.0943203084153     1.8     2.5
   25   0.0000010880980  -0.0943203506319     1.9     2.6
 MICROCYCLE DIIS UPDATE:                   25                    5
   26   0.0000000048614  -0.0943203227005     1.8     2.5
 -----------------------------------------------------------------
 Iterations converged
 CCSD correlation energy / hartree =        -0.094320322700509
 CCSD total energy / hartree       =       -76.147530619710864

 Singles contributions

 Doubles contributions
     6a   (alpha)     7a   (alpha) ---     4a   (alpha)     5a   (alpha)       -0.0232848945
     6a   (alpha)     8a   (alpha) ---     3a   (alpha)     4a   (alpha)       -0.0290693385
     6a   (alpha)     6a   (beta ) ---     4a   (alpha)     4a   (beta )       -0.0679664319
     6a   (alpha)     6a   (beta ) ---     5a   (alpha)     5a   (beta )       -0.0249384359
     6a   (alpha)     7a   (beta ) ---     4a   (alpha)     5a   (beta )       -0.0504424734
     6a   (alpha)     7a   (beta ) ---     5a   (alpha)     4a   (beta )       -0.0271575788
     6a   (alpha)     8a   (beta ) ---     4a   (alpha)     3a   (beta )        0.0396508200
     7a   (alpha)     8a   (alpha) ---     3a   (alpha)     5a   (alpha)       -0.0302304000
     7a   (alpha)     6a   (beta ) ---     4a   (alpha)     5a   (beta )       -0.0271575788
     7a   (alpha)     6a   (beta ) ---     5a   (alpha)     4a   (beta )       -0.0504424734
     7a   (alpha)     7a   (beta ) ---     5a   (alpha)     5a   (beta )       -0.0666299290
     7a   (alpha)     8a   (beta ) ---     5a   (alpha)     3a   (beta )        0.0399005465
     8a   (alpha)     6a   (beta ) ---     3a   (alpha)     4a   (beta )        0.0396508200
     8a   (alpha)     7a   (beta ) ---     3a   (alpha)     5a   (beta )        0.0399005465
     8a   (alpha)     8a   (beta ) ---     3a   (alpha)     3a   (beta )       -0.0570930793
 Ground state specification:
 exp(T)|Ref>~(1+T)|Ref>
 ------- a(p)+/a(q) strings ----------

 singles norm

 doubles norm

 Reference string
   1.0000000000000000      :(1a)+ (2a)+ (3a)+ (4a)+ (5a)+ (1b)+ (2b)+ (3b)+ (4b)+ (5b)+ |0>

 Singles strings

 Doubles strings
 -------------------------------------

 Parallel integral file used      16 records with       0 large values


 Task  times  cpu:       48.8s     wall:       68.4s


                                NWChem Input Module
                                -------------------


 Summary of allocated global arrays
-----------------------------------
  No active global arrays


MA_summarize_allocated_blocks: starting scan ...
MA_summarize_allocated_blocks: scan completed: 0 heap blocks, 0 stack blocks
MA usage statistics:

	allocation statistics:
					      heap	     stack
					      ----	     -----
	current number of blocks	         0	         0
	maximum number of blocks	        18	        42
	current total bytes		         0	         0
	maximum total bytes		  25775960	  38234456
	maximum total K-bytes		     25776	     38235
	maximum total M-bytes		        26	        39


                                     CITATION
                                     --------
                Please cite the following reference when publishing
                           results obtained with NWChem:

          E. Apra, E. J. Bylaska, W. A. de Jong, N. Govind, K. Kowalski,
       T. P. Straatsma, M. Valiev, H. J. J. van Dam, Y. Alexeev, J. Anchell,
       V. Anisimov, F. W. Aquino, R. Atta-Fynn, J. Autschbach, N. P. Bauman,
     J. C. Becca, D. E. Bernholdt, K. Bhaskaran-Nair, S. Bogatko, P. Borowski,
         J. Boschen, J. Brabec, A. Bruner, E. Cauet, Y. Chen, G. N. Chuev,
      C. J. Cramer, J. Daily, M. J. O. Deegan, T. H. Dunning Jr., M. Dupuis,
   K. G. Dyall, G. I. Fann, S. A. Fischer, A. Fonari, H. Fruchtl, L. Gagliardi,
      J. Garza, N. Gawande, S. Ghosh, K. Glaesemann, A. W. Gotz, J. Hammond,
       V. Helms, E. D. Hermes, K. Hirao, S. Hirata, M. Jacquelin, L. Jensen,
   B. G. Johnson, H. Jonsson, R. A. Kendall, M. Klemm, R. Kobayashi, V. Konkov,
      S. Krishnamoorthy, M. Krishnan, Z. Lin, R. D. Lins, R. J. Littlefield,
      A. J. Logsdail, K. Lopata, W. Ma, A. V. Marenich, J. Martin del Campo,
   D. Mejia-Rodriguez, J. E. Moore, J. M. Mullin, T. Nakajima, D. R. Nascimento,
    J. A. Nichols, P. J. Nichols, J. Nieplocha, A. Otero-de-la-Roza, B. Palmer,
    A. Panyala, T. Pirojsirikul, B. Peng, R. Peverati, J. Pittner, L. Pollack,
   R. M. Richard, P. Sadayappan, G. C. Schatz, W. A. Shelton, D. W. Silverstein,
   D. M. A. Smith, T. A. Soares, D. Song, M. Swart, H. L. Taylor, G. S. Thomas,
            V. Tipparaju, D. G. Truhlar, K. Tsemekhman, T. Van Voorhis,
      A. Vazquez-Mayagoitia, P. Verma, O. Villa, A. Vishnu, K. D. Vogiatzis,
        D. Wang, J. H. Weare, M. J. Williamson, T. L. Windus, K. Wolinski,
        A. T. Wong, Q. Wu, C. Yang, Q. Yu, M. Zacharias, Z. Zhang, Y. Zhao,
                                and R. J. Harrison
                        "NWChem: Past, present, and future
                         J. Chem. Phys. 152, 184102 (2020)
                               doi:10.1063/5.0004997

                                      AUTHORS
                                      -------
  E. Apra, E. J. Bylaska, N. Govind, K. Kowalski, M. Valiev, D. Mejia-Rodriguez,
       A. Kunitsa, N. P. Bauman, A. Panyala, W. A. de Jong, T. P. Straatsma,
        H. J. J. van Dam, D. Wang, T. L. Windus, J. Hammond, J. Autschbach,
    K. Bhaskaran-Nair, J. Brabec, K. Lopata, S. A. Fischer, S. Krishnamoorthy,
     M. Jacquelin, W. Ma, M. Klemm, O. Villa, Y. Chen, V. Anisimov, F. Aquino,
    S. Hirata, M. T. Hackler, Eric Hermes, L. Jensen, J. E. Moore, J. C. Becca,
      V. Konjkov, T. Risthaus, M. Malagoli, A. Marenich, A. Otero-de-la-Roza,
        J. Mullin, P. Nichols, R. Peverati, J. Pittner, Y. Zhao, P.-D. Fan,
        A. Fonari, M. J. Williamson, R. J. Harrison, J. R. Rehr, M. Dupuis,
     D. Silverstein, D. M. A. Smith, J. Nieplocha, V. Tipparaju, M. Krishnan,
     B. E. Van Kuiken, A. Vazquez-Mayagoitia, M. Swart, Q. Wu, T. Van Voorhis,
     A. A. Auer, M. Nooijen, L. D. Crosby, E. Brown, G. Cisneros, G. I. Fann,
   H. Fruchtl, J. Garza, K. Hirao, R. A. Kendall, J. A. Nichols, K. Tsemekhman,
    K. Wolinski, J. Anchell, D. E. Bernholdt, P. Borowski, T. Clark, D. Clerc,
   H. Dachsel, M. J. O. Deegan, K. Dyall, D. Elwood, E. Glendening, M. Gutowski,
   A. C. Hess, J. Jaffe, B. G. Johnson, J. Ju, R. Kobayashi, R. Kutteh, Z. Lin,
   R. Littlefield, X. Long, B. Meng, T. Nakajima, S. Niu, L. Pollack, M. Rosing,
   K. Glaesemann, G. Sandrone, M. Stave, H. Taylor, G. Thomas, J. H. van Lenthe,
                               A. T. Wong, Z. Zhang.

 Total times  cpu:       52.6s     wall:       75.2s
