 argument  1 = input.nw
  NWChem w/ OpenMP: maximum threads =    1



============================== echo of input deck ==============================
 echo
 start H2O
 title "H2O"

 memory total 24 gb

 geometry units bohr
 symmetry c1
        O  0.00000000  0.00000000  0.00000000
        H  0.00000000  2.802044  0.00000000
        H  1.72558000 -0.64860000  0.00000000
 end

 basis spherical
   * library cc-pVTZ
 end

 mcscf
   active  8
   actelec 10
   multiplicity 1
   maxiter 40
   vectors input h2o.mos
   vectors output h2o.mos
 end

 task mcscf

 scf
   vectors input h2o.mos
   vectors output h2o-trash.mos
   noscf
 end

 tce
   2eorb
   2emet 13
   ccsd
   maxiter 300
 end

 set tce:print_integrals T
 set tce:qorb 8
 set tce:qela 5
 set tce:qelb 5

# set tce:qducc T
# set tce:nactv 3
# set tce:nonhf T
# set tce:ducc_model 6

 set tce:printtol 0.02

 task tce
================================================================================


                                         
                                         


             Northwest Computational Chemistry Package (NWChem) 7.0.1
             --------------------------------------------------------


                    Environmental Molecular Sciences Laboratory
                       Pacific Northwest National Laboratory
                                Richland, WA 99352

                              Copyright (c) 1994-2020
                       Pacific Northwest National Laboratory
                            Battelle Memorial Institute

             NWChem is an open-source computational chemistry package
                        distributed under the terms of the
                      Educational Community License (ECL) 2.0
             A copy of the license is included with this distribution
                              in the LICENSE.TXT file

                                  ACKNOWLEDGMENT
                                  --------------

            This software and its documentation were developed at the
            EMSL at Pacific Northwest National Laboratory, a multiprogram
            national laboratory, operated for the U.S. Department of Energy
            by Battelle under Contract Number DE-AC05-76RL01830. Support
            for this work was provided by the Department of Energy Office
            of Biological and Environmental Research, Office of Basic
            Energy Sciences, and the Office of Advanced Scientific Computing.


           Job information
           ---------------

    hostname        = WE46210
    program         = /home/baum612/code/nwchem/bin/LINUX64/nwchem
    date            = Thu May  2 10:52:22 2024

    compiled        = Tue_Apr_30_12:43:26_2024
    source          = /home/baum612/code/nwchem
    nwchem branch   = 7.0.0
    nwchem revision = nwchem_on_git-4191-g39d87d64de
    ga revision     = 5.8.1
    use scalapack   = F
    input           = input.nw
    prefix          = H2O.
    data base       = ./H2O.db
    status          = startup
    nproc           =        1
    time left       =     -1s



           Memory information
           ------------------

    heap     =  805306362 doubles =   6144.0 Mbytes
    stack    =  805306367 doubles =   6144.0 Mbytes
    global   = 1610612736 doubles =  12288.0 Mbytes (distinct from heap & stack)
    total    = 3221225465 doubles =  24576.0 Mbytes
    verify   = yes
    hardfail = no 


           Directory information
           ---------------------

  0 permanent = .
  0 scratch   = .




                                NWChem Input Module
                                -------------------


                                        H2O
                                        ---
 Turning off AUTOSYM since
 SYMMETRY directive was detected!


          ------
          auto-z
          ------
  autoz: The atoms group into disjoint clusters
 cluster   1:    1    3
 cluster   2:    2
 Connecting clusters   1   2 via atoms    1    2 r = 1.48
  autoz: regenerating connections with new bonds
  no constraints, skipping    0.0000000000000000     
  no constraints, skipping    0.0000000000000000     


                             Geometry "geometry" -> ""
                             -------------------------

 Output coordinates in a.u. (scale by  1.000000000 to convert to a.u.)

  No.       Tag          Charge          X              Y              Z
 ---- ---------------- ---------- -------------- -------------- --------------
    1 O                    8.0000    -0.17255800    -0.21534440     0.00000000
    2 H                    1.0000    -0.17255800     2.58669960     0.00000000
    3 H                    1.0000     1.55302200    -0.86394440     0.00000000

      Atomic Mass 
      ----------- 

      O                 15.994910
      H                  1.007825


 Effective nuclear repulsion energy (a.u.)       7.4539457033

            Nuclear Dipole moment (a.u.) 
            ----------------------------
        X                 Y               Z
 ---------------- ---------------- ----------------
    -0.0000000000    -0.0000000000     0.0000000000



                                Z-matrix (autoz)
                                -------- 

 Units are Angstrom for bonds and degrees for angles

      Type          Name      I     J     K     L     M      Value
      ----------- --------  ----- ----- ----- ----- ----- ----------
    1 Stretch                  1     2                       1.48278
    2 Stretch                  1     3                       0.97551
    3 Bend                     2     1     3               110.59992


            XYZ format geometry
            -------------------
     3
 geometry
 O                    -0.09131377    -0.11395536     0.00000000
 H                    -0.09131377     1.36882258     0.00000000
 H                     0.82182391    -0.45717972     0.00000000

 ==============================================================================
                                internuclear distances
 ------------------------------------------------------------------------------
       center one      |      center two      | atomic units |       a.u.
 ------------------------------------------------------------------------------
    3 H                |   1 O                |     1.84345  |     1.84345
 ------------------------------------------------------------------------------
                         number of included internuclear distances:          1
 ==============================================================================





 Summary of "ao basis" -> "" (spherical)
 ------------------------------------------------------------------------------
       Tag                 Description            Shells   Functions and Types
 ---------------- ------------------------------  ------  ---------------------
 *                          cc-pVTZ                   on all atoms 


                      Basis "ao basis" -> "ao basis" (spherical)
                      -----
  O (Oxygen)
  ----------
            Exponent  Coefficients 
       -------------- ---------------------------------------------------------
  1 S  1.53300000E+04  0.000508
  1 S  2.29900000E+03  0.003929
  1 S  5.22400000E+02  0.020243
  1 S  1.47300000E+02  0.079181
  1 S  4.75500000E+01  0.230687
  1 S  1.67600000E+01  0.433118
  1 S  6.20700000E+00  0.350260
  1 S  6.88200000E-01 -0.008154

  2 S  1.53300000E+04 -0.000115
  2 S  2.29900000E+03 -0.000895
  2 S  5.22400000E+02 -0.004636
  2 S  1.47300000E+02 -0.018724
  2 S  4.75500000E+01 -0.058463
  2 S  1.67600000E+01 -0.136463
  2 S  6.20700000E+00 -0.175740
  2 S  6.88200000E-01  0.603418

  3 S  1.75200000E+00  1.000000

  4 S  2.38400000E-01  1.000000

  5 P  3.44600000E+01  0.015928
  5 P  7.74900000E+00  0.099740
  5 P  2.28000000E+00  0.310492

  6 P  7.15600000E-01  1.000000

  7 P  2.14000000E-01  1.000000

  8 D  2.31400000E+00  1.000000

  9 D  6.45000000E-01  1.000000

 10 F  1.42800000E+00  1.000000

  H (Hydrogen)
  ------------
            Exponent  Coefficients 
       -------------- ---------------------------------------------------------
  1 S  3.38700000E+01  0.006068
  1 S  5.09500000E+00  0.045308
  1 S  1.15900000E+00  0.202822

  2 S  3.25800000E-01  1.000000

  3 S  1.02700000E-01  1.000000

  4 P  1.40700000E+00  1.000000

  5 P  3.88000000E-01  1.000000

  6 D  1.05700000E+00  1.000000



 Summary of "ao basis" -> "ao basis" (spherical)
 ------------------------------------------------------------------------------
       Tag                 Description            Shells   Functions and Types
 ---------------- ------------------------------  ------  ---------------------
 O                          cc-pVTZ                 10       30   4s3p2d1f
 H                          cc-pVTZ                  6       14   3s2p1d



                            NWChem Direct MCSCF Module
                            --------------------------


                                        H2O


     -----------------------------------
       Basis functions:             58
       Inactive shells:              0
       Active shells:                8
       Active electrons:            10
       Symmetry:                    a       
       Multiplicity:                 1
       Orbital rotations:          400
     -----------------------------------

     -----------------------------------
       E2 extrapolation:             F
       Conjugacy:                    T
       Micro CI relax:               T
       Canonical orbitals:           T
       Maximum iterations:          40
       Converge threshold:    1.00E-04
       Conjugacy resets:            20
       Initial levelshift:        0.10
     -----------------------------------

 Loading old vectors from job with title :

H2O


   input molecular orbitals = ./h2o.mos
  output molecular orbtials = ./h2o.mos

       No. of determinants:          3136


  Starting Orbital Energies
   -20.579092    -1.291348    -0.660459    -0.524148    -0.522604    -0.058770
    -0.026185    -0.014736     0.315873     0.346416     0.606105     0.764183
     0.794051     0.850010     0.959305     1.034546     1.045880     1.294823
     1.404673     1.809504     2.013940     2.054087     2.165127     2.205680
     2.705819     2.777950     3.355943     3.382311     3.424447     3.429571
     3.505527     3.576368     3.635279     3.777183     3.853194     3.926547
     3.983215     4.039193     4.112636     4.153758     4.434958     4.443725
     4.791646     4.938448     5.345196     5.690263     5.787831     5.894149
     6.223871     6.852866     6.885069     6.903687     6.931466     7.082031
     7.091302     7.445982     7.661121    10.921115

  Orbital Symmetry Irreps
a    a    a    a    a    a    a    a    a    a    a    a    a    a    a   
a    a    a    a    a    a    a    a    a    a    a    a    a    a    a   
a    a    a    a    a    a    a    a    a    a    a    a    a    a    a   
a    a    a    a    a    a    a    a    a    a    a    a    a   

 Integral file          = ./H2O.aoints.0
 Record size in doubles =  65536        No. of integs per rec  =  43688
 Max. records in memory =     49        Max. records in file   = 250660
 No. of bits per label  =      8        No. of bits per value  =     64


 #quartets = 3.213D+04 #integrals = 6.607D+05 #direct =  0.0% #cached =100.0%




          %%%%% MacroIteration   1 %%%%%


          Number of sigma calls:       18
                       o<<<<< (aa):             0.00
                       o<<<<< (bb):             0.00
                       o<<<<< (ab):             0.07
                       o<<<<< (total)           0.07
                       o<<<<< (aa) ff           0.00
                       o<<<<< (aa) gop          0.00
                       o<<<<< (aa) dot          0.00
                       o<<<<< (ab) str          0.00
                       o<<<<< (ab) gath         0.00
                       o<<<<< (ab) dotab        0.00
                       o<<<<< (ab) scat         0.00
                       o<<<<< (ab) sync         0.00
                       o<<<<< Density           0.00
                       o<<<<< Density one       0.00
                       o<<<<< Density two       0.00
                       o<<<<< Density ab        0.00
                       o<<<<< Spin adapt        0.33
                       o<<<<< Symm adapt        0.00

                       o<<<<< (ab) max sync:      0.00

           >>>| Valence CI:            -83.508387754813
           >>>| MCSCF energy:          -76.054442051497
           >>>| Gradient norm:          0.907618421D-02

                              ----- Line search ------

        step       energy         lsg     num-lsg   num-lsh   lsrat    time
      ------- ---------------- --------- --------- --------- ------- --------
       0.0000     -76.05444205 -1.27D-05  0.00D+00  0.00D+00 0.0D+00      1.1

          Number of sigma calls:       16
                       o<<<<< (aa):             0.00
                       o<<<<< (bb):             0.00
                       o<<<<< (ab):             0.05
                       o<<<<< (total)           0.06
                       o<<<<< (aa) ff           0.00
                       o<<<<< (aa) gop          0.00
                       o<<<<< (aa) dot          0.00
                       o<<<<< (ab) str          0.00
                       o<<<<< (ab) gath         0.00
                       o<<<<< (ab) dotab        0.00
                       o<<<<< (ab) scat         0.00
                       o<<<<< (ab) sync         0.00
                       o<<<<< Density           0.01
                       o<<<<< Density one       0.00
                       o<<<<< Density two       0.00
                       o<<<<< Density ab        0.01
                       o<<<<< Spin adapt        0.24
                       o<<<<< Symm adapt        0.00

                       o<<<<< (ab) max sync:      0.00
       1.0000     -76.05444921 -1.62D-06 -1.62D-06  1.11D-05 1.3D-01      1.5

          Number of sigma calls:       14
                       o<<<<< (aa):             0.00
                       o<<<<< (bb):             0.00
                       o<<<<< (ab):             0.03
                       o<<<<< (total)           0.04
                       o<<<<< (aa) ff           0.00
                       o<<<<< (aa) gop          0.00
                       o<<<<< (aa) dot          0.00
                       o<<<<< (ab) str          0.00
                       o<<<<< (ab) gath         0.00
                       o<<<<< (ab) dotab        0.00
                       o<<<<< (ab) scat         0.00
                       o<<<<< (ab) sync         0.00
                       o<<<<< Density           0.01
                       o<<<<< Density one       0.00
                       o<<<<< Density two       0.00
                       o<<<<< Density ab        0.01
                       o<<<<< Spin adapt        0.27
                       o<<<<< Symm adapt        0.00

                       o<<<<< (ab) max sync:      0.00
       1.1458     -76.05444933  7.25D-10  7.10D-10  1.11D-05 5.7D-05      1.8
     --- Orbitals canonicalized ---



          %%%%% MacroIteration   2 %%%%%


          Number of sigma calls:       16
                       o<<<<< (aa):             0.00
                       o<<<<< (bb):             0.00
                       o<<<<< (ab):             0.04
                       o<<<<< (total)           0.05
                       o<<<<< (aa) ff           0.00
                       o<<<<< (aa) gop          0.00
                       o<<<<< (aa) dot          0.00
                       o<<<<< (ab) str          0.00
                       o<<<<< (ab) gath         0.00
                       o<<<<< (ab) dotab        0.00
                       o<<<<< (ab) scat         0.00
                       o<<<<< (ab) sync         0.00
                       o<<<<< Density           0.00
                       o<<<<< Density one       0.00
                       o<<<<< Density two       0.00
                       o<<<<< Density ab        0.00
                       o<<<<< Spin adapt        0.27
                       o<<<<< Symm adapt        0.00

                       o<<<<< (ab) max sync:      0.00

           >>>| Valence CI:            -83.508395031839
           >>>| MCSCF energy:          -76.054449328522
           >>>| Gradient norm:          0.154648589D-02
     --- Warning:    3 Hessian diagonals < 0.05 ---
     --- Conjugacy reset ---

                              ----- Line search ------

        step       energy         lsg     num-lsg   num-lsh   lsrat    time
      ------- ---------------- --------- --------- --------- ------- --------
       0.0000     -76.05444933 -5.04D-07  0.00D+00  0.00D+00 0.0D+00      2.3

          Number of sigma calls:       14
                       o<<<<< (aa):             0.00
                       o<<<<< (bb):             0.00
                       o<<<<< (ab):             0.04
                       o<<<<< (total)           0.05
                       o<<<<< (aa) ff           0.00
                       o<<<<< (aa) gop          0.00
                       o<<<<< (aa) dot          0.00
                       o<<<<< (ab) str          0.00
                       o<<<<< (ab) gath         0.00
                       o<<<<< (ab) dotab        0.00
                       o<<<<< (ab) scat         0.00
                       o<<<<< (ab) sync         0.00
                       o<<<<< Density           0.00
                       o<<<<< Density one       0.00
                       o<<<<< Density two       0.00
                       o<<<<< Density ab        0.00
                       o<<<<< Spin adapt        0.27
                       o<<<<< Symm adapt        0.00

                       o<<<<< (ab) max sync:      0.00
       1.0000     -76.05444966 -1.50D-07 -1.50D-07  3.54D-07 3.0D-01      2.7

          Number of sigma calls:       12
                       o<<<<< (aa):             0.00
                       o<<<<< (bb):             0.00
                       o<<<<< (ab):             0.03
                       o<<<<< (total)           0.03
                       o<<<<< (aa) ff           0.00
                       o<<<<< (aa) gop          0.00
                       o<<<<< (aa) dot          0.00
                       o<<<<< (ab) str          0.00
                       o<<<<< (ab) gath         0.00
                       o<<<<< (ab) dotab        0.00
                       o<<<<< (ab) scat         0.00
                       o<<<<< (ab) sync         0.00
                       o<<<<< Density           0.01
                       o<<<<< Density one       0.00
                       o<<<<< Density two       0.00
                       o<<<<< Density ab        0.01
                       o<<<<< Spin adapt        0.20
                       o<<<<< Symm adapt        0.00

                       o<<<<< (ab) max sync:      0.00
       1.4230     -76.05444969  3.06D-10  2.94D-10  3.55D-07 6.1D-04      3.1



          %%%%% MacroIteration   3 %%%%%


          Number of sigma calls:        1
                       o<<<<< (aa):             0.00
                       o<<<<< (bb):             0.00
                       o<<<<< (ab):             0.00
                       o<<<<< (total)           0.00
                       o<<<<< (aa) ff           0.00
                       o<<<<< (aa) gop          0.00
                       o<<<<< (aa) dot          0.00
                       o<<<<< (ab) str          0.00
                       o<<<<< (ab) gath         0.00
                       o<<<<< (ab) dotab        0.00
                       o<<<<< (ab) scat         0.00
                       o<<<<< (ab) sync         0.00
                       o<<<<< Density           0.01
                       o<<<<< Density one       0.00
                       o<<<<< Density two       0.00
                       o<<<<< Density ab        0.01
                       o<<<<< Spin adapt        0.00
                       o<<<<< Symm adapt        0.00

                       o<<<<< (ab) max sync:      0.00

           >>>| Valence CI:            -83.508395390536
           >>>| MCSCF energy:          -76.054449687220
           >>>| Gradient norm:          0.497584255D-03
     --- Warning:    3 Hessian diagonals < 0.05 ---

                              ----- Line search ------

        step       energy         lsg     num-lsg   num-lsh   lsrat    time
      ------- ---------------- --------- --------- --------- ------- --------
       0.0000     -76.05444969 -3.75D-08  0.00D+00  0.00D+00 0.0D+00      3.2

          Number of sigma calls:       12
                       o<<<<< (aa):             0.00
                       o<<<<< (bb):             0.00
                       o<<<<< (ab):             0.02
                       o<<<<< (total)           0.03
                       o<<<<< (aa) ff           0.00
                       o<<<<< (aa) gop          0.00
                       o<<<<< (aa) dot          0.00
                       o<<<<< (ab) str          0.00
                       o<<<<< (ab) gath         0.00
                       o<<<<< (ab) dotab        0.00
                       o<<<<< (ab) scat         0.00
                       o<<<<< (ab) sync         0.00
                       o<<<<< Density           0.01
                       o<<<<< Density one       0.00
                       o<<<<< Density two       0.00
                       o<<<<< Density ab        0.01
                       o<<<<< Spin adapt        0.16
                       o<<<<< Symm adapt        0.00

                       o<<<<< (ab) max sync:      0.00
       1.0000     -76.05444971 -5.03D-09 -5.03D-09  3.24D-08 1.3D-01      3.5

          Number of sigma calls:       10
                       o<<<<< (aa):             0.00
                       o<<<<< (bb):             0.00
                       o<<<<< (ab):             0.03
                       o<<<<< (total)           0.04
                       o<<<<< (aa) ff           0.00
                       o<<<<< (aa) gop          0.00
                       o<<<<< (aa) dot          0.00
                       o<<<<< (ab) str          0.00
                       o<<<<< (ab) gath         0.00
                       o<<<<< (ab) dotab        0.00
                       o<<<<< (ab) scat         0.00
                       o<<<<< (ab) sync         0.00
                       o<<<<< Density           0.01
                       o<<<<< Density one       0.00
                       o<<<<< Density two       0.00
                       o<<<<< Density ab        0.01
                       o<<<<< Spin adapt        0.17
                       o<<<<< Symm adapt        0.00

                       o<<<<< (ab) max sync:      0.00
       1.1550     -76.05444971  1.65D-13  8.72D-13  3.24D-08 4.4D-06      3.8



          %%%%% MacroIteration   4 %%%%%


          Number of sigma calls:        1
                       o<<<<< (aa):             0.00
                       o<<<<< (bb):             0.00
                       o<<<<< (ab):             0.00
                       o<<<<< (total)           0.00
                       o<<<<< (aa) ff           0.00
                       o<<<<< (aa) gop          0.00
                       o<<<<< (aa) dot          0.00
                       o<<<<< (ab) str          0.00
                       o<<<<< (ab) gath         0.00
                       o<<<<< (ab) dotab        0.00
                       o<<<<< (ab) scat         0.00
                       o<<<<< (ab) sync         0.00
                       o<<<<< Density           0.01
                       o<<<<< Density one       0.00
                       o<<<<< Density two       0.00
                       o<<<<< Density ab        0.01
                       o<<<<< Spin adapt        0.00
                       o<<<<< Symm adapt        0.00

                       o<<<<< (ab) max sync:      0.00

           >>>| Valence CI:            -83.508395412165
           >>>| MCSCF energy:          -76.054449708849
           >>>| Gradient norm:          0.937713345D-04




     ==============================
            MCSCF Converged
     ==============================



          Canonical Eigenvalues

              1      
    1  -20.5798
    2   -1.2914
    3   -0.6602
    4   -0.5230
    5   -0.5225
    6   -0.0599
    7   -0.0262
    8   -0.0147
    9    0.3156
   10    0.3472
   11    0.6063
   12    0.7660
   13    0.7932
   14    0.8510
   15    0.9588
   16    1.0324
   17    1.0419
   18    1.2962
   19    1.4039
   20    1.8068
   21    2.0122
   22    2.0540
   23    2.1630
   24    2.2011
   25    2.7051
   26    2.7784
   27    3.3575
   28    3.3795
   29    3.4247
   30    3.4294
   31    3.5025
   32    3.5761
   33    3.6360
   34    3.7707
   35    3.8528
   36    3.9240
   37    3.9825
   38    4.0375
   39    4.1097
   40    4.1510
   41    4.4336
   42    4.4383
   43    4.7860
   44    4.9312
   45    5.3388
   46    5.6853
   47    5.7810
   48    5.8886
   49    6.2032
   50    6.8510
   51    6.8819
   52    6.9015
   53    6.9267
   54    7.0807
   55    7.0902
   56    7.4394
   57    7.6591
   58   10.9184


          Converged CI vector

   Index           Coefficient          Config. Occupation
         1         -0.95025548          1  2  3  4  5  1  2  3  4  5
         2         -0.07899483          1  2  3  4  5  1  2  3  4  6
        23         -0.07275401          1  2  3  4  5  1  2  3  5  8
        27          0.02031102          1  2  3  4  5  1  2  3  6  8
         9         -0.04328972          1  2  3  4  5  1  2  4  5  7
        41         -0.02408850          1  2  3  4  5  1  2  5  7  8
        57         -0.07899483          1  2  3  4  6  1  2  3  4  5
        58          0.18172363          1  2  3  4  6  1  2  3  4  6
        79          0.02963081          1  2  3  4  6  1  2  3  5  8
        60          0.06187109          1  2  3  4  6  1  2  4  5  6
        65          0.02227482          1  2  3  4  6  1  2  4  5  7
        61          0.02156850          1  2  3  4  6  1  3  4  5  6
      1233         -0.07275401          1  2  3  5  8  1  2  3  4  5
      1234          0.02963081          1  2  3  5  8  1  2  3  4  6
      1255          0.05149749          1  2  3  5  8  1  2  3  5  8
      1241          0.03108153          1  2  3  5  8  1  2  4  5  7
      1457          0.02031102          1  2  3  6  8  1  2  3  4  5
       170          0.06187109          1  2  4  5  6  1  2  3  4  6
       172          0.03266144          1  2  4  5  6  1  2  4  5  6
       449         -0.04328972          1  2  4  5  7  1  2  3  4  5
       450          0.02227482          1  2  4  5  7  1  2  3  4  6
       471          0.03108153          1  2  4  5  7  1  2  3  5  8
       457          0.06366900          1  2  4  5  7  1  2  4  5  7
       458         -0.02776140          1  2  4  5  7  1  3  4  5  7
      2241         -0.02408850          1  2  5  7  8  1  2  3  4  5
       226          0.02156850          1  3  4  5  6  1  2  3  4  6
       229          0.02093255          1  3  4  5  6  1  3  4  5  6
       513         -0.02776140          1  3  4  5  7  1  2  4  5  7
       514          0.02632063          1  3  4  5  7  1  3  4  5  7

          Number of sigma calls:        1
                       o<<<<< (aa):             0.00
                       o<<<<< (bb):             0.00
                       o<<<<< (ab):             0.00
                       o<<<<< (total)           0.00
                       o<<<<< (aa) ff           0.00
                       o<<<<< (aa) gop          0.00
                       o<<<<< (aa) dot          0.00
                       o<<<<< (ab) str          0.00
                       o<<<<< (ab) gath         0.00
                       o<<<<< (ab) dotab        0.00
                       o<<<<< (ab) scat         0.00
                       o<<<<< (ab) sync         0.00
                       o<<<<< Density           0.01
                       o<<<<< Density one       0.00
                       o<<<<< Density two       0.00
                       o<<<<< Density ab        0.00
                       o<<<<< Spin adapt        0.00
                       o<<<<< Symm adapt        0.00

                       o<<<<< (ab) max sync:      0.00



          Natural orbital occupation numbers

              1      
    1    2.0000
    2    1.9980
    3    1.9805
    4    1.9739
    5    1.8958
    6    0.1061
    7    0.0269
    8    0.0188


          Number of sigma calls:       18
                       o<<<<< (aa):             0.00
                       o<<<<< (bb):             0.00
                       o<<<<< (ab):             0.05
                       o<<<<< (total)           0.05
                       o<<<<< (aa) ff           0.00
                       o<<<<< (aa) gop          0.00
                       o<<<<< (aa) dot          0.00
                       o<<<<< (ab) str          0.00
                       o<<<<< (ab) gath         0.00
                       o<<<<< (ab) dotab        0.00
                       o<<<<< (ab) scat         0.00
                       o<<<<< (ab) sync         0.00
                       o<<<<< Density           0.01
                       o<<<<< Density one       0.00
                       o<<<<< Density two       0.00
                       o<<<<< Density ab        0.01
                       o<<<<< Spin adapt        0.26
                       o<<<<< Symm adapt        0.00

                       o<<<<< (ab) max sync:      0.00


       Final MCSCF results 
       ------------------- 

       Total MCSCF energy =    -76.054449708849
            Gradient norm =      9.4D-05

    CPU time for solution =      4.2s
   Wall time for solution =      8.1s



                        Analysis of MCSCF natural orbitals
                        ----------------------------------

 Vector    1  Occ=1.999990D+00  E=-2.057984D+01  Symmetry=a
              MO Center= -9.1D-02, -1.1D-01, -7.4D-12, r^2= 1.5D-02
   Bfn.  Coefficient  Atom+Function         Bfn.  Coefficient  Atom+Function  
  ----- ------------  ---------------      ----- ------------  ---------------
     1      0.974736  1 O  s          

 Vector    2  Occ=1.998032D+00  E=-1.291382D+00  Symmetry=a
              MO Center= -2.8D-01, -1.6D-01,  4.5D-09, r^2= 4.2D-01
   Bfn.  Coefficient  Atom+Function         Bfn.  Coefficient  Atom+Function  
  ----- ------------  ---------------      ----- ------------  ---------------
     2      0.542528  1 O  s                  4      0.399761  1 O  s          
     3      0.150588  1 O  s          

 Vector    3  Occ=1.980542D+00  E=-6.602230D-01  Symmetry=a
              MO Center= -6.2D-02, -1.1D-01, -4.6D-09, r^2= 6.4D-01
   Bfn.  Coefficient  Atom+Function         Bfn.  Coefficient  Atom+Function  
  ----- ------------  ---------------      ----- ------------  ---------------
    10      0.437194  1 O  pz                13      0.392830  1 O  pz         
     7      0.365226  1 O  pz         

 Vector    4  Occ=1.973926D+00  E=-5.230073D-01  Symmetry=a
              MO Center=  3.4D-01, -2.4D-01, -5.0D-12, r^2= 6.0D-01
   Bfn.  Coefficient  Atom+Function         Bfn.  Coefficient  Atom+Function  
  ----- ------------  ---------------      ----- ------------  ---------------
     8      0.343446  1 O  px                 5      0.286781  1 O  px         
    46      0.269934  3 H  s                 11      0.201245  1 O  px         
    45      0.185764  3 H  s          

 Vector    5  Occ=1.895818D+00  E=-5.224582D-01  Symmetry=a
              MO Center= -4.7D-02,  5.1D-01, -1.8D-11, r^2= 1.0D+00
   Bfn.  Coefficient  Atom+Function         Bfn.  Coefficient  Atom+Function  
  ----- ------------  ---------------      ----- ------------  ---------------
     9      0.328137  1 O  py                32      0.284801  2 H  s          
     6      0.259493  1 O  py                12      0.220519  1 O  py         
    33      0.176924  2 H  s          

 Vector    6  Occ=1.060646D-01  E=-5.994607D-02  Symmetry=a
              MO Center= -6.0D-02,  7.6D-01, -6.4D-11, r^2= 1.0D+00
   Bfn.  Coefficient  Atom+Function         Bfn.  Coefficient  Atom+Function  
  ----- ------------  ---------------      ----- ------------  ---------------
    32      0.492930  2 H  s                  9     -0.438253  1 O  py         
     6     -0.366778  1 O  py                31      0.226041  2 H  s          
    33      0.214757  2 H  s                  2     -0.153851  1 O  s          

 Vector    7  Occ=2.686924D-02  E=-2.619488D-02  Symmetry=a
              MO Center=  5.2D-01, -3.0D-01, -2.9D-10, r^2= 6.5D-01
   Bfn.  Coefficient  Atom+Function         Bfn.  Coefficient  Atom+Function  
  ----- ------------  ---------------      ----- ------------  ---------------
    46      0.660897  3 H  s                  5     -0.502477  1 O  px         
     8     -0.435790  1 O  px                45      0.308248  3 H  s          
     2     -0.284889  1 O  s                  4     -0.222405  1 O  s          

 Vector    8  Occ=1.875829D-02  E=-1.469176D-02  Symmetry=a
              MO Center=  6.3D-03, -9.4D-02, -5.7D-09, r^2= 1.3D+00
   Bfn.  Coefficient  Atom+Function         Bfn.  Coefficient  Atom+Function  
  ----- ------------  ---------------      ----- ------------  ---------------
    13      0.842935  1 O  pz                 7     -0.612861  1 O  pz         
    10     -0.331769  1 O  pz         

 Vector    9  Occ=0.000000D+00  E= 3.156180D-01  Symmetry=a
              MO Center=  1.0D+00, -6.6D-01,  1.7D-09, r^2= 3.7D+00
   Bfn.  Coefficient  Atom+Function         Bfn.  Coefficient  Atom+Function  
  ----- ------------  ---------------      ----- ------------  ---------------
    47      1.992312  3 H  s                  4     -1.460136  1 O  s          
    11     -0.714500  1 O  px                51     -0.499815  3 H  px         
    52      0.192632  3 H  py                32     -0.178262  2 H  s          

 Vector   10  Occ=0.000000D+00  E= 3.471604D-01  Symmetry=a
              MO Center= -1.2D-01,  1.6D+00,  3.1D-11, r^2= 3.7D+00
   Bfn.  Coefficient  Atom+Function         Bfn.  Coefficient  Atom+Function  
  ----- ------------  ---------------      ----- ------------  ---------------
    33      1.948280  2 H  s                 32     -1.085316  2 H  s          
    47     -0.810866  3 H  s                 12     -0.399941  1 O  py         
    46      0.278006  3 H  s                  4     -0.275795  1 O  s          

 Vector   11  Occ=0.000000D+00  E= 6.062796D-01  Symmetry=a
              MO Center= -2.7D-01,  4.8D-01, -3.1D-10, r^2= 2.0D+00
   Bfn.  Coefficient  Atom+Function         Bfn.  Coefficient  Atom+Function  
  ----- ------------  ---------------      ----- ------------  ---------------
    46      2.405313  3 H  s                  4     -1.915180  1 O  s          
    11     -1.841435  1 O  px                51     -0.696464  3 H  px         
    12      0.481937  1 O  py                37     -0.387312  2 H  px         
    47      0.267220  3 H  s                 33     -0.225937  2 H  s          
    32      0.222785  2 H  s                  9      0.164301  1 O  py         

 Vector   12  Occ=0.000000D+00  E= 7.660198D-01  Symmetry=a
              MO Center=  1.3D-01, -3.8D-01,  2.6D-11, r^2= 2.2D+00
   Bfn.  Coefficient  Atom+Function         Bfn.  Coefficient  Atom+Function  
  ----- ------------  ---------------      ----- ------------  ---------------
    12      1.508445  1 O  py                46      1.478464  3 H  s          
     4     -1.194191  1 O  s                 11     -1.147926  1 O  px         
    52      0.629531  3 H  py                47      0.572827  3 H  s          
     9     -0.486826  1 O  py                32     -0.479488  2 H  s          
    33     -0.440575  2 H  s                 51     -0.385616  3 H  px         

 Vector   13  Occ=0.000000D+00  E= 7.931698D-01  Symmetry=a
              MO Center=  1.6D-01,  8.1D-01,  1.5D-10, r^2= 1.9D+00
   Bfn.  Coefficient  Atom+Function         Bfn.  Coefficient  Atom+Function  
  ----- ------------  ---------------      ----- ------------  ---------------
    39      0.876404  2 H  pz                53     -0.617422  3 H  pz         

 Vector   14  Occ=0.000000D+00  E= 8.510146D-01  Symmetry=a
              MO Center= -3.4D-01,  1.7D-02, -3.1D-10, r^2= 2.4D+00
   Bfn.  Coefficient  Atom+Function         Bfn.  Coefficient  Atom+Function  
  ----- ------------  ---------------      ----- ------------  ---------------
    11      1.310700  1 O  px                46     -1.262129  3 H  s          
    12      1.057837  1 O  py                 4      0.778316  1 O  s          
    37     -0.750299  2 H  px                52     -0.735649  3 H  py         
    32     -0.656710  2 H  s                 38      0.376541  2 H  py         
     9     -0.324246  1 O  py                47      0.323936  3 H  s          

 Vector   15  Occ=0.000000D+00  E= 9.587697D-01  Symmetry=a
              MO Center=  2.8D-01,  1.4D-02, -5.3D-10, r^2= 2.3D+00
   Bfn.  Coefficient  Atom+Function         Bfn.  Coefficient  Atom+Function  
  ----- ------------  ---------------      ----- ------------  ---------------
    53     -1.123631  3 H  pz                13      1.030819  1 O  pz         
    39     -0.652635  2 H  pz         

 Vector   16  Occ=0.000000D+00  E= 1.032447D+00  Symmetry=a
              MO Center=  2.9D-01,  1.2D-01,  5.0D-10, r^2= 2.5D+00
   Bfn.  Coefficient  Atom+Function         Bfn.  Coefficient  Atom+Function  
  ----- ------------  ---------------      ----- ------------  ---------------
     4      1.829068  1 O  s                 46     -1.790751  3 H  s          
    12     -1.285660  1 O  py                11      1.109464  1 O  px         
    51      0.993465  3 H  px                37     -0.766661  2 H  px         
    52      0.735790  3 H  py                47     -0.376901  3 H  s          
    32      0.349734  2 H  s                  2     -0.236037  1 O  s          

 Vector   17  Occ=0.000000D+00  E= 1.041938D+00  Symmetry=a
              MO Center=  1.0D-02,  1.2D+00,  1.7D-09, r^2= 1.7D+00
   Bfn.  Coefficient  Atom+Function         Bfn.  Coefficient  Atom+Function  
  ----- ------------  ---------------      ----- ------------  ---------------
    38      1.160626  2 H  py                 4     -0.913857  1 O  s          
    46      0.647097  3 H  s                  2      0.550194  1 O  s          
    33     -0.544663  2 H  s                 11     -0.509029  1 O  px         
    47      0.511275  3 H  s                 12      0.294567  1 O  py         
    52      0.273932  3 H  py                32      0.263950  2 H  s          

 Vector   18  Occ=0.000000D+00  E= 1.296194D+00  Symmetry=a
              MO Center=  7.8D-03,  1.1D-01,  3.0D-09, r^2= 2.2D+00
   Bfn.  Coefficient  Atom+Function         Bfn.  Coefficient  Atom+Function  
  ----- ------------  ---------------      ----- ------------  ---------------
     4      5.272966  1 O  s                 46     -3.051830  3 H  s          
    51      1.814771  3 H  px                11      1.382632  1 O  px         
    52     -1.120165  3 H  py                38      0.999851  2 H  py         
     8      0.960194  1 O  px                 2     -0.784083  1 O  s          
    47     -0.743313  3 H  s                 32     -0.667595  2 H  s          


 Wrote Lagrangian and 1- and 2-particle density matrices to ./H2O.mcpdm


     Multipole analysis of the density
     ---------------------------------

     L   x y z        total        nuclear
     -   - - -        -----        -------
     0   0 0 0     -0.000000     10.000000

     1   1 0 0      0.547840     -0.000000
     1   0 1 0      0.362501     -0.000000
     1   0 0 1      0.000000      0.000000

     2   2 0 0     -4.428140      2.679864
     2   1 1 0     -0.834931     -1.490805
     2   1 0 1     -0.000000      0.000000
     2   0 2 0     -3.018569      7.808400
     2   0 1 1     -0.000000      0.000000
     2   0 0 2     -5.841966      0.000000


  Mulliken analysis of the total density
  --------------------------------------

    Atom       Charge   Shell Charges
 -----------   ------   -------------------------------------------------------
    1 O    8     8.43   1.95  1.03  0.24  0.64  1.23  1.99  1.33  0.00  0.01  0.00
    2 H    1     0.82   0.16  0.43  0.20  0.00  0.03  0.00
    3 H    1     0.76   0.25  0.38  0.04  0.02  0.06  0.01

    Mulliken analysis of the active space density
    ---------------------------------------------

    Atom       Charge   Shell Charges
 -----------   ------   -------------------------------------------------------
    1 O    8     8.43   1.95  1.03  0.24  0.64  1.23  1.99  1.33  0.00  0.01  0.00
    2 H    1     0.82   0.16  0.43  0.20  0.00  0.03  0.00
    3 H    1     0.76   0.25  0.38  0.04  0.02  0.06  0.01

 Parallel integral file used      16 records with       0 large values


 Task  times  cpu:        4.3s     wall:        8.1s


                                NWChem Input Module
                                -------------------


                                 NWChem SCF Module
                                 -----------------


                                        H2O



  ao basis        = "ao basis"
  functions       =    58
  atoms           =     3
  closed shells   =     5
  open shells     =     0
  charge          =   0.00
  wavefunction    = RHF 
  input vectors   = ./h2o.mos
  output vectors  = ./h2o-trash.mos
  use symmetry    = F
  symmetry adapt  = F


 Summary of "ao basis" -> "ao basis" (spherical)
 ------------------------------------------------------------------------------
       Tag                 Description            Shells   Functions and Types
 ---------------- ------------------------------  ------  ---------------------
 O                          cc-pVTZ                 10       30   4s3p2d1f
 H                          cc-pVTZ                  6       14   3s2p1d



 Forming initial guess at       8.1s


 Loading old vectors from job with title :

H2O


 Starting SCF solution at       8.1s



 ----------------------------------------------
         Quadratically convergent ROHF

 Convergence threshold     :          1.000E-04
 Maximum no. of iterations :           30
 Final Fock-matrix accuracy:          1.000E-07
 ----------------------------------------------


 Integral file          = ./H2O.aoints.0
 Record size in doubles =  65536        No. of integs per rec  =  43688
 Max. records in memory =     49        Max. records in file   = 250698
 No. of bits per label  =      8        No. of bits per value  =     64


 #quartets = 3.213D+04 #integrals = 6.607D+05 #direct =  0.0% #cached =100.0%



       Final RHF  results 
       ------------------ 

         Total SCF energy =    -75.929908692364
      One-electron energy =   -119.736132282153
      Two-electron energy =     36.352277886473
 Nuclear repulsion energy =      7.453945703316

        Time for solution =      0.1s


             Final eigenvalues
             -----------------

              1      
    1  -20.5798
    2   -1.2914
    3   -0.6602
    4   -0.5230
    5   -0.5225
    6   -0.0599
    7   -0.0262
    8   -0.0147
    9    0.3156
   10    0.3472
   11    0.6063
   12    0.7660
   13    0.7932
   14    0.8510
   15    0.9588

                       ROHF Final Molecular Orbital Analysis
                       -------------------------------------

 Vector    2  Occ=2.000000D+00  E=-1.291382D+00
              MO Center= -2.8D-01, -1.6D-01,  4.5D-09, r^2= 4.2D-01
   Bfn.  Coefficient  Atom+Function         Bfn.  Coefficient  Atom+Function  
  ----- ------------  ---------------      ----- ------------  ---------------
     2      0.542528  1 O  s                  4      0.399761  1 O  s          
     3      0.150588  1 O  s          

 Vector    3  Occ=2.000000D+00  E=-6.602230D-01
              MO Center= -6.2D-02, -1.1D-01, -4.6D-09, r^2= 6.4D-01
   Bfn.  Coefficient  Atom+Function         Bfn.  Coefficient  Atom+Function  
  ----- ------------  ---------------      ----- ------------  ---------------
    10      0.437194  1 O  pz                13      0.392830  1 O  pz         
     7      0.365226  1 O  pz         

 Vector    4  Occ=2.000000D+00  E=-5.230073D-01
              MO Center=  3.4D-01, -2.4D-01, -5.0D-12, r^2= 6.0D-01
   Bfn.  Coefficient  Atom+Function         Bfn.  Coefficient  Atom+Function  
  ----- ------------  ---------------      ----- ------------  ---------------
     8      0.343446  1 O  px                 5      0.286781  1 O  px         
    46      0.269934  3 H  s                 11      0.201245  1 O  px         
    45      0.185764  3 H  s          

 Vector    5  Occ=2.000000D+00  E=-5.224582D-01
              MO Center= -4.7D-02,  5.1D-01, -1.8D-11, r^2= 1.0D+00
   Bfn.  Coefficient  Atom+Function         Bfn.  Coefficient  Atom+Function  
  ----- ------------  ---------------      ----- ------------  ---------------
     9      0.328137  1 O  py                32      0.284801  2 H  s          
     6      0.259493  1 O  py                12      0.220519  1 O  py         
    33      0.176924  2 H  s          

 Vector    6  Occ=0.000000D+00  E=-5.994607D-02
              MO Center= -6.0D-02,  7.6D-01, -6.4D-11, r^2= 1.0D+00
   Bfn.  Coefficient  Atom+Function         Bfn.  Coefficient  Atom+Function  
  ----- ------------  ---------------      ----- ------------  ---------------
    32      0.492930  2 H  s                  9     -0.438253  1 O  py         
     6     -0.366778  1 O  py                31      0.226041  2 H  s          
    33      0.214757  2 H  s                  2     -0.153851  1 O  s          

 Vector    7  Occ=0.000000D+00  E=-2.619488D-02
              MO Center=  5.2D-01, -3.0D-01, -2.9D-10, r^2= 6.5D-01
   Bfn.  Coefficient  Atom+Function         Bfn.  Coefficient  Atom+Function  
  ----- ------------  ---------------      ----- ------------  ---------------
    46      0.660897  3 H  s                  5     -0.502477  1 O  px         
     8     -0.435790  1 O  px                45      0.308248  3 H  s          
     2     -0.284889  1 O  s                  4     -0.222405  1 O  s          

 Vector    8  Occ=0.000000D+00  E=-1.469176D-02
              MO Center=  6.3D-03, -9.4D-02, -5.7D-09, r^2= 1.3D+00
   Bfn.  Coefficient  Atom+Function         Bfn.  Coefficient  Atom+Function  
  ----- ------------  ---------------      ----- ------------  ---------------
    13      0.842935  1 O  pz                 7     -0.612861  1 O  pz         
    10     -0.331769  1 O  pz         

 Vector    9  Occ=0.000000D+00  E= 3.156180D-01
              MO Center=  1.0D+00, -6.6D-01,  1.7D-09, r^2= 3.7D+00
   Bfn.  Coefficient  Atom+Function         Bfn.  Coefficient  Atom+Function  
  ----- ------------  ---------------      ----- ------------  ---------------
    47      1.992312  3 H  s                  4     -1.460136  1 O  s          
    11     -0.714500  1 O  px                51     -0.499815  3 H  px         
    52      0.192632  3 H  py                32     -0.178262  2 H  s          

 Vector   10  Occ=0.000000D+00  E= 3.471604D-01
              MO Center= -1.2D-01,  1.6D+00,  3.1D-11, r^2= 3.7D+00
   Bfn.  Coefficient  Atom+Function         Bfn.  Coefficient  Atom+Function  
  ----- ------------  ---------------      ----- ------------  ---------------
    33      1.948280  2 H  s                 32     -1.085316  2 H  s          
    47     -0.810866  3 H  s                 12     -0.399941  1 O  py         
    46      0.278006  3 H  s                  4     -0.275795  1 O  s          

 Vector   11  Occ=0.000000D+00  E= 6.062796D-01
              MO Center= -2.7D-01,  4.8D-01, -3.1D-10, r^2= 2.0D+00
   Bfn.  Coefficient  Atom+Function         Bfn.  Coefficient  Atom+Function  
  ----- ------------  ---------------      ----- ------------  ---------------
    46      2.405313  3 H  s                  4     -1.915180  1 O  s          
    11     -1.841435  1 O  px                51     -0.696464  3 H  px         
    12      0.481937  1 O  py                37     -0.387312  2 H  px         
    47      0.267220  3 H  s                 33     -0.225937  2 H  s          
    32      0.222785  2 H  s                  9      0.164301  1 O  py         

 Vector   12  Occ=0.000000D+00  E= 7.660198D-01
              MO Center=  1.3D-01, -3.8D-01,  2.6D-11, r^2= 2.2D+00
   Bfn.  Coefficient  Atom+Function         Bfn.  Coefficient  Atom+Function  
  ----- ------------  ---------------      ----- ------------  ---------------
    12      1.508445  1 O  py                46      1.478464  3 H  s          
     4     -1.194191  1 O  s                 11     -1.147926  1 O  px         
    52      0.629531  3 H  py                47      0.572827  3 H  s          
     9     -0.486826  1 O  py                32     -0.479488  2 H  s          
    33     -0.440575  2 H  s                 51     -0.385616  3 H  px         

 Vector   13  Occ=0.000000D+00  E= 7.931698D-01
              MO Center=  1.6D-01,  8.1D-01,  1.5D-10, r^2= 1.9D+00
   Bfn.  Coefficient  Atom+Function         Bfn.  Coefficient  Atom+Function  
  ----- ------------  ---------------      ----- ------------  ---------------
    39      0.876404  2 H  pz                53     -0.617422  3 H  pz         

 Vector   14  Occ=0.000000D+00  E= 8.510146D-01
              MO Center= -3.4D-01,  1.7D-02, -3.1D-10, r^2= 2.4D+00
   Bfn.  Coefficient  Atom+Function         Bfn.  Coefficient  Atom+Function  
  ----- ------------  ---------------      ----- ------------  ---------------
    11      1.310700  1 O  px                46     -1.262129  3 H  s          
    12      1.057837  1 O  py                 4      0.778316  1 O  s          
    37     -0.750299  2 H  px                52     -0.735649  3 H  py         
    32     -0.656710  2 H  s                 38      0.376541  2 H  py         
     9     -0.324246  1 O  py                47      0.323936  3 H  s          

 Vector   15  Occ=0.000000D+00  E= 9.587697D-01
              MO Center=  2.8D-01,  1.4D-02, -5.3D-10, r^2= 2.3D+00
   Bfn.  Coefficient  Atom+Function         Bfn.  Coefficient  Atom+Function  
  ----- ------------  ---------------      ----- ------------  ---------------
    53     -1.123631  3 H  pz                13      1.030819  1 O  pz         
    39     -0.652635  2 H  pz         


 center of mass
 --------------
 x =  -0.07599894 y =  -0.09484317 z =   0.00000000

 moments of inertia (a.u.)
 ------------------
           8.075338786327           1.337530621972           0.000000000000
           1.337530621972           2.833002082974           0.000000000000
           0.000000000000           0.000000000000          10.908340869301

  Mulliken analysis of the total density
  --------------------------------------

    Atom       Charge   Shell Charges
 -----------   ------   -------------------------------------------------------
    1 O    8     8.45   1.95  1.03  0.24  0.64  1.21  2.01  1.35  0.00  0.01  0.00
    2 H    1     0.80   0.15  0.42  0.20  0.00  0.03  0.00
    3 H    1     0.75   0.25  0.38  0.04  0.02  0.06  0.01

       Multipole analysis of the density wrt the origin
       ------------------------------------------------

     L   x y z        total         open         nuclear
     -   - - -        -----         ----         -------
     0   0 0 0     -0.000000      0.000000     10.000000

     1   1 0 0      0.558344      0.000000     -0.000000
     1   0 1 0      0.412589      0.000000     -0.000000
     1   0 0 1      0.000000      0.000000      0.000000

     2   2 0 0     -4.412954      0.000000      2.679864
     2   1 1 0     -0.860648      0.000000     -1.490805
     2   1 0 1     -0.000000      0.000000      0.000000
     2   0 2 0     -2.859183      0.000000      7.808400
     2   0 1 1     -0.000000      0.000000      0.000000
     2   0 0 2     -5.830489      0.000000      0.000000


 Parallel integral file used      16 records with       0 large values

 ------------------------------------
     Number of active orbitals      8
     Number of active alpha electrons      5
     Number of active beta electrons       5
 ------------------------------------
                   NWChem Extensible Many-Electron Theory Module
                   ---------------------------------------------

              ======================================================
                   This portion of the program was automatically
                  generated by a Tensor Contraction Engine (TCE).
                  The development of this portion of the program
                 and TCE was supported by US Department of Energy,
                Office of Science, Office of Basic Energy Science.
                      TCE is a product of Battelle and PNNL.
              Please cite: S.Hirata, J.Phys.Chem.A 107, 9887 (2003).
              ======================================================

                                        H2O


            General Information
            -------------------
      Number of processors :     1
         Wavefunction type : Restricted Hartree-Fock
          No. of electrons :    10
           Alpha electrons :     5
            Beta electrons :     5
           No. of orbitals :   116
            Alpha orbitals :    58
             Beta orbitals :    58
        Alpha frozen cores :     0
         Beta frozen cores :     0
     Alpha frozen virtuals :    50
      Beta frozen virtuals :    50
         Spin multiplicity : singlet 
    Number of AO functions :    58
       Number of AO shells :    22
        Use of symmetry is : off
      Symmetry adaption is : off
         Schwarz screening : 0.10D-09

          Correlation Information
          -----------------------
          Calculation type : Coupled-cluster singles & doubles                           
   Perturbative correction : none                                                        
            Max iterations :      300
        Residual threshold : 0.10D-06
     T(0) DIIS level shift : 0.00D+00
     L(0) DIIS level shift : 0.00D+00
     T(1) DIIS level shift : 0.00D+00
     L(1) DIIS level shift : 0.00D+00
     T(R) DIIS level shift : 0.00D+00
     T(I) DIIS level shift : 0.00D+00
   CC-T/L Amplitude update :  5-th order DIIS
                I/O scheme : Global Array Library
        L-threshold :  0.10D-06
        EOM-threshold :  0.10D-06
 no EOMCCSD initial starts read in
 TCE RESTART OPTIONS
 READ_INT:   F
 WRITE_INT:  F
 READ_TA:    F
 WRITE_TA:   F
 READ_XA:    F
 WRITE_XA:   F
 READ_IN3:   F
 WRITE_IN3:  F
 SLICE:      F
 D4D5:       F
 quantumc:   T
 qrotation:  F
 pwtce:      F
 qducc:      F
 nacto:                         0
 nrotv:                         0
 nrot:                          0

            Memory Information
            ------------------
          Available GA space size is    1610609372 doubles
          Available MA space size is    1610609772 doubles

 Maximum block size supplied by input
 Maximum block size         1 doubles

 tile_dim =      1

 Block   Spin    Irrep     Size     Offset   Alpha
 -------------------------------------------------
   1    alpha     a      1 doubles       0       1
   2    alpha     a      1 doubles       1       2
   3    alpha     a      1 doubles       2       3
   4    alpha     a      1 doubles       3       4
   5    alpha     a      1 doubles       4       5
   6    beta      a      1 doubles       5       1
   7    beta      a      1 doubles       6       2
   8    beta      a      1 doubles       7       3
   9    beta      a      1 doubles       8       4
  10    beta      a      1 doubles       9       5
  11    alpha     a      1 doubles      10      11
  12    alpha     a      1 doubles      11      12
  13    alpha     a      1 doubles      12      13
  14    beta      a      1 doubles      13      11
  15    beta      a      1 doubles      14      12
  16    beta      a      1 doubles      15      13

 Global array virtual files algorithm will be used

 Parallel file system coherency ......... OK

 Integral file          = ./H2O.aoints.0
 Record size in doubles =  65536        No. of integs per rec  =  43688
 Max. records in memory =     49        Max. records in file   = 250698
 No. of bits per label  =      8        No. of bits per value  =     64


 #quartets = 3.213D+04 #integrals = 6.608D+05 #direct =  0.0% #cached =100.0%


 Fock matrix recomputed
 1-e file size   =               64
 1-e file name   = ./H2O.f1
 Cpu & wall time / sec            0.1            0.1
 4-electron integrals stored in orbital form

 v2    file size   =              666
 4-index algorithm nr.  13 is used
 imaxsize =       30
 imaxsize ichop =        0
 begin_one_electron_integrals
    1    1       -32.8156796994
    2    1        -0.7248780945
    3    1        -0.0000000023
    4    1         0.1255096673
    5    1         0.0218732270
    6    1        -0.1421780675
    7    1        -0.2048979589
    8    1         0.0000000039
    1    2        -0.7248780945
    2    2        -7.7201942751
    3    2         0.0000000050
    4    2        -0.2607654236
    5    2        -0.0061298331
    6    2         0.2574896866
    7    2         0.1094346619
    8    2         0.0000000015
    1    3        -0.0000000023
    2    3         0.0000000050
    3    3        -6.9085332790
    4    3         0.0000000018
    5    3         0.0000000002
    6    3        -0.0000000019
    7    3        -0.0000000024
    8    3         2.1586278788
    1    4         0.1255096673
    2    4        -0.2607654236
    3    4         0.0000000018
    4    4        -6.6999836241
    5    4        -0.0825390989
    6    4         0.0322100290
    7    4         1.9944980100
    8    4         0.0000000039
    1    5         0.0218732270
    2    5        -0.0061298331
    3    5         0.0000000002
    4    5        -0.0825390989
    5    5        -5.7236752635
    6    5         2.0924658180
    7    5        -0.0332190290
    8    5         0.0000000032
    1    6        -0.1421780675
    2    6         0.2574896866
    3    6        -0.0000000019
    4    6         0.0322100290
    5    6         2.0924658180
    6    6        -5.5203283460
    7    6         0.0391772055
    8    6         0.0000000003
    1    7        -0.2048979589
    2    7         0.1094346619
    3    7        -0.0000000024
    4    7         1.9944980100
    5    7        -0.0332190290
    6    7         0.0391772055
    7    7        -5.9947647747
    1    8         0.0000000039
    2    8         0.0000000015
    3    8         2.1586278788
    4    8         0.0000000039
    5    8         0.0000000032
    6    8         0.0000000003
    8    8        -5.2876264862
 end_one_electron_integrals
 begin_two_electron_integrals
    1    1    1    1        4.8155415621
    2    1    1    1       -0.2621083476
    2    1    2    1        0.0348088936
    3    1    1    1        0.0000000028
    3    1    2    1       -0.0000000001
    3    1    3    1        0.0282205433
    3    1    2    2        0.0000000004
    4    1    1    1       -0.0883336012
    4    1    2    1        0.0030452527
    4    1    4    1        0.0213454100
    4    1    2    2       -0.0142308240
    4    1    3    3       -0.0022277951
    5    1    1    1       -0.0182549809
    5    1    2    1       -0.0007262025
    5    1    4    1        0.0014394303
    5    1    5    1        0.0156869577
    5    1    2    2       -0.0052085429
    5    1    4    2        0.0002570388
    5    1    3    3        0.0001387438
    5    1    4    4        0.0002194414
    6    1    1    1        0.1040849689
    6    1    2    1       -0.0072972567
    6    1    4    1       -0.0027252760
    6    1    5    1       -0.0209485410
    6    1    6    1        0.0301325413
    6    1    2    2        0.0104874228
    6    1    4    2        0.0010684493
    6    1    5    2       -0.0201825042
    6    1    3    3        0.0037305033
    6    1    5    3        0.0000000001
    6    1    4    4        0.0038321221
    6    1    5    4       -0.0036847435
    6    1    5    5       -0.0034150959
    7    1    1    1        0.1667724472
    7    1    2    1       -0.0086113280
    7    1    3    1        0.0000000001
    7    1    4    1       -0.0334724345
    7    1    5    1       -0.0007544931
    7    1    6    1        0.0031604877
    7    1    7    1        0.0532098253
    7    1    2    2        0.0221998475
    7    1    4    2       -0.0265020853
    7    1    5    2        0.0010160645
    7    1    6    2       -0.0047147619
    7    1    3    3        0.0034594137
    7    1    4    3        0.0000000002
    7    1    4    4       -0.0152536753
    7    1    5    4       -0.0008174732
    7    1    6    4        0.0039344895
    7    1    5    5        0.0029310155
    7    1    6    5       -0.0022392106
    7    1    6    6        0.0050937836
    8    1    1    1       -0.0000000032
    8    1    2    1        0.0000000001
    8    1    3    1       -0.0386718943
    8    1    8    1        0.0533076336
    8    1    2    2       -0.0000000005
    8    1    3    2       -0.0370630384
    8    1    4    2       -0.0000000001
    8    1    7    2        0.0000000001
    8    1    3    3        0.0000000004
    8    1    4    3       -0.0073814999
    8    1    5    3       -0.0022199287
    8    1    6    3        0.0067804328
    8    1    7    3        0.0098261461
    8    1    4    4       -0.0000000001
    8    1    7    7       -0.0000000002
    2    2    1    1        1.0820412716
    2    2    2    1        0.0062931982
    2    2    2    2        0.8303333600
    3    2    1    1       -0.0000000003
    3    2    2    1        0.0000000001
    3    2    3    1        0.0257422643
    3    2    2    2        0.0000000012
    3    2    3    2        0.1393690561
    4    2    1    1       -0.0051397441
    4    2    2    1       -0.0043917201
    4    2    4    1        0.0167044900
    4    2    2    2       -0.0547170977
    4    2    3    2        0.0000000006
    4    2    4    2        0.0909631622
    4    2    3    3        0.0101119918
    5    2    1    1       -0.0279126978
    5    2    2    1       -0.0021010497
    5    2    4    1        0.0005380758
    5    2    5    1        0.0143948752
    5    2    2    2       -0.0384929126
    5    2    3    2        0.0000000002
    5    2    4    2       -0.0042255864
    5    2    5    2        0.0894236575
    5    2    3    3       -0.0084127455
    5    2    4    4       -0.0148844482
    6    2    1    1       -0.0555657679
    6    2    2    1        0.0019184357
    6    2    4    1        0.0018329689
    6    2    5    1       -0.0151226912
    6    2    6    1        0.0198823963
    6    2    2    2       -0.0094626090
    6    2    3    2       -0.0000000002
    6    2    4    2        0.0104174940
    6    2    5    2       -0.0709826948
    6    2    6    2        0.0684385989
    6    2    3    3       -0.0286594725
    6    2    5    3        0.0000000003
    6    2    4    4       -0.0145430428
    6    2    5    4       -0.0112054269
    6    2    5    5       -0.0319428337
    7    2    1    1       -0.0243018185
    7    2    2    1        0.0049426642
    7    2    4    1       -0.0161312084
    7    2    5    1        0.0013626474
    7    2    6    1       -0.0033895154
    7    2    7    1        0.0242717641
    7    2    2    2        0.0253560087
    7    2    3    2       -0.0000000004
    7    2    4    2       -0.0582772703
    7    2    5    2        0.0092048453
    7    2    6    2       -0.0133970012
    7    2    7    2        0.0511685387
    7    2    3    3       -0.0167667776
    7    2    4    3        0.0000000003
    7    2    6    3        0.0000000001
    7    2    4    4       -0.0341108486
    7    2    5    4       -0.0011537988
    7    2    6    4        0.0069493194
    7    2    5    5       -0.0071198808
    7    2    6    5        0.0107579488
    7    2    6    6       -0.0072240295
    8    2    1    1       -0.0000000002
    8    2    2    1       -0.0000000001
    8    2    3    1       -0.0203150725
    8    2    8    1        0.0262741300
    8    2    2    2       -0.0000000008
    8    2    3    2       -0.0528438461
    8    2    4    2       -0.0000000001
    8    2    6    2        0.0000000002
    8    2    7    2        0.0000000002
    8    2    8    2        0.0434702532
    8    2    3    3        0.0000000005
    8    2    4    3       -0.0052507222
    8    2    5    3       -0.0006740767
    8    2    6    3        0.0097694172
    8    2    7    3        0.0118009975
    8    2    4    4       -0.0000000001
    8    2    7    4        0.0000000001
    8    2    5    5       -0.0000000001
    8    2    6    6       -0.0000000001
    3    3    1    1        1.0361945945
    3    3    2    1        0.0036325406
    3    3    3    1       -0.0000000003
    3    3    2    2        0.7325709871
    3    3    3    2       -0.0000000017
    3    3    3    3        0.7479395422
    4    3    3    1        0.0052893371
    4    3    4    1       -0.0000000001
    4    3    2    2        0.0000000007
    4    3    3    2        0.0223336589
    4    3    4    2       -0.0000000004
    4    3    3    3       -0.0000000004
    4    3    4    3        0.0358724500
    5    3    1    1        0.0000000001
    5    3    3    1        0.0014880054
    5    3    2    2        0.0000000003
    5    3    3    2        0.0066923673
    5    3    5    2       -0.0000000004
    5    3    4    3        0.0025549810
    5    3    5    3        0.0246938308
    6    3    1    1        0.0000000004
    6    3    3    1       -0.0050488011
    6    3    5    1        0.0000000001
    6    3    6    1       -0.0000000001
    6    3    2    2       -0.0000000002
    6    3    3    2       -0.0171134366
    6    3    5    2        0.0000000003
    6    3    6    2       -0.0000000003
    6    3    3    3        0.0000000004
    6    3    4    3       -0.0031578342
    6    3    5    3       -0.0195268242
    6    3    6    3        0.0219251983
    6    3    4    4        0.0000000001
    6    3    5    5        0.0000000002
    7    3    1    1        0.0000000006
    7    3    3    1       -0.0075591895
    7    3    4    1        0.0000000001
    7    3    7    1       -0.0000000002
    7    3    2    2       -0.0000000003
    7    3    3    2       -0.0196604004
    7    3    4    2        0.0000000003
    7    3    6    2        0.0000000001
    7    3    7    2       -0.0000000002
    7    3    3    3        0.0000000005
    7    3    4    3       -0.0197044500
    7    3    5    3       -0.0003809865
    7    3    6    3        0.0028368598
    7    3    7    3        0.0243944294
    7    3    4    4        0.0000000004
    7    3    5    5        0.0000000001
    7    3    6    5       -0.0000000002
    7    3    6    6        0.0000000002
    8    3    1    1       -0.5330327682
    8    3    2    1       -0.0008931102
    8    3    3    1        0.0000000002
    8    3    4    1        0.0034653984
    8    3    5    1        0.0001936203
    8    3    6    1       -0.0039452105
    8    3    7    1       -0.0060868861
    8    3    8    1       -0.0000000003
    8    3    2    2       -0.2181227883
    8    3    3    2        0.0000000007
    8    3    4    2        0.0049893798
    8    3    5    2        0.0075138351
    8    3    6    2        0.0168119748
    8    3    7    2        0.0081813452
    8    3    8    2       -0.0000000004
    8    3    3    3       -0.2123089412
    8    3    6    3       -0.0000000002
    8    3    7    3       -0.0000000003
    8    3    8    3        0.1640252469
    8    3    4    4       -0.1479953745
    8    3    5    4       -0.0044533569
    8    3    6    4        0.0022769820
    8    3    7    4        0.1246768054
    8    3    5    5       -0.1196994430
    8    3    6    5        0.1100159161
    8    3    7    5       -0.0018222672
    8    3    6    6       -0.1411564246
    8    3    7    6        0.0035374484
    8    3    7    7       -0.1741269865
    4    4    1    1        0.9035728785
    4    4    2    1        0.0008116230
    4    4    4    1        0.0089589110
    4    4    2    2        0.6350194155
    4    4    4    2        0.0799188052
    4    4    3    3        0.6302308615
    4    4    4    3       -0.0000000005
    4    4    4    4        0.7643866461
    5    4    1    1        0.0186452365
    5    4    2    1       -0.0005118176
    5    4    4    1        0.0008375600
    5    4    5    1        0.0029486777
    5    4    2    2        0.0017761687
    5    4    4    2       -0.0001639199
    5    4    5    2        0.0108475616
    5    4    3    3        0.0085113079
    5    4    4    4        0.0059719852
    5    4    5    4        0.0227351212
    6    4    1    1       -0.0091138328
    6    4    2    1        0.0014426589
    6    4    4    1       -0.0029865459
    6    4    5    1       -0.0032744194
    6    4    6    1        0.0041079360
    6    4    2    2        0.0088501817
    6    4    4    2       -0.0062295307
    6    4    5    2       -0.0130198491
    6    4    6    2        0.0097514692
    6    4    3    3       -0.0031741650
    6    4    4    4       -0.0026901649
    6    4    5    4       -0.0180964529
    6    4    6    4        0.0190799767
    6    4    5    5       -0.0117211237
    7    4    1    1       -0.4806193195
    7    4    2    1        0.0009968965
    7    4    4    1       -0.0044318511
    7    4    5    1       -0.0000573146
    7    4    6    1       -0.0033576495
    7    4    7    1        0.0037889885
    7    4    2    2       -0.2119057974
    7    4    3    2        0.0000000002
    7    4    4    2        0.0112722491
    7    4    5    2        0.0014374562
    7    4    6    2        0.0170309496
    7    4    7    2        0.0187650784
    7    4    3    3       -0.1847742437
    7    4    6    3       -0.0000000001
    7    4    7    3       -0.0000000002
    7    4    4    4       -0.1092115076
    7    4    5    4       -0.0079916477
    7    4    6    4        0.0084333750
    7    4    7    4        0.2088238512
    7    4    5    5       -0.1263655070
    7    4    6    5        0.0981610502
    7    4    6    6       -0.1456100800
    8    4    1    1       -0.0000000008
    8    4    3    1       -0.0029487036
    8    4    8    1        0.0033865052
    8    4    2    2       -0.0000000004
    8    4    3    2        0.0011200998
    8    4    8    2        0.0039045445
    8    4    3    3       -0.0000000003
    8    4    4    3       -0.0039056698
    8    4    5    3       -0.0003133465
    8    4    6    3        0.0012809473
    8    4    7    3        0.0163184356
    8    4    8    3        0.0000000001
    8    4    4    4       -0.0000000004
    8    4    7    4        0.0000000001
    8    4    8    4        0.0168150093
    8    4    5    5       -0.0000000002
    8    4    6    5        0.0000000002
    8    4    6    6       -0.0000000002
    8    4    7    7       -0.0000000004
    5    5    1    1        0.7601865448
    5    5    2    1        0.0020515318
    5    5    4    1       -0.0014592108
    5    5    5    1        0.0030732441
    5    5    2    2        0.5763773105
    5    5    3    2       -0.0000000002
    5    5    4    2        0.0000765372
    5    5    5    2        0.0383093160
    5    5    3    3        0.5439661099
    5    5    5    3       -0.0000000003
    5    5    4    4        0.5048813303
    5    5    5    4        0.0098521879
    5    5    5    5        0.5801497249
    6    5    1    1       -0.4394623877
    6    5    2    1       -0.0014554410
    6    5    4    1        0.0013677114
    6    5    5    1       -0.0030114187
    6    5    6    1       -0.0001013132
    6    5    2    2       -0.2335178888
    6    5    3    2        0.0000000002
    6    5    4    2       -0.0088180516
    6    5    5    2        0.0223228532
    6    5    6    2        0.0166483060
    6    5    3    3       -0.2072052920
    6    5    5    3       -0.0000000001
    6    5    6    3       -0.0000000001
    6    5    4    4       -0.1877303638
    6    5    5    4       -0.0070096014
    6    5    6    4       -0.0022628214
    6    5    5    5       -0.0799500006
    6    5    6    5        0.2134607997
    7    5    1    1        0.0060426461
    7    5    2    1        0.0010621301
    7    5    4    1       -0.0011867838
    7    5    5    1       -0.0042567126
    7    5    6    1        0.0055026430
    7    5    7    1        0.0014196092
    7    5    2    2        0.0116341063
    7    5    4    2       -0.0026043295
    7    5    5    2       -0.0122839086
    7    5    6    2        0.0110516695
    7    5    7    2       -0.0003570661
    7    5    3    3        0.0034970530
    7    5    4    4       -0.0031901424
    7    5    5    4       -0.0110517394
    7    5    6    4        0.0136671802
    7    5    7    4       -0.0035132261
    7    5    5    5       -0.0014995516
    7    5    6    5       -0.0025202188
    7    5    7    5        0.0148415685
    7    5    6    6       -0.0036830377
    8    5    1    1       -0.0000000007
    8    5    3    1       -0.0007438700
    8    5    8    1        0.0006947922
    8    5    2    2       -0.0000000003
    8    5    3    2        0.0039730086
    8    5    8    2        0.0013185785
    8    5    3    3       -0.0000000003
    8    5    4    3        0.0001305003
    8    5    5    3       -0.0034479702
    8    5    6    3        0.0100970484
    8    5    7    3        0.0002943281
    8    5    8    3        0.0000000001
    8    5    4    4       -0.0000000002
    8    5    7    4        0.0000000002
    8    5    8    4        0.0011366752
    8    5    5    5       -0.0000000003
    8    5    8    5        0.0135389027
    8    5    6    6       -0.0000000002
    8    5    7    7       -0.0000000002
    6    6    1    1        0.8455438685
    6    6    2    1        0.0009067355
    6    6    4    1       -0.0024481357
    6    6    5    1        0.0062357304
    6    6    6    1       -0.0065268805
    6    6    2    2        0.5726123184
    6    6    3    2       -0.0000000002
    6    6    4    2       -0.0019034543
    6    6    5    2        0.0440926367
    6    6    6    2       -0.0405490407
    6    6    3    3        0.5435248810
    6    6    5    3       -0.0000000003
    6    6    6    3        0.0000000003
    6    6    4    4        0.4973113130
    6    6    5    4        0.0087049992
    6    6    6    4       -0.0139489028
    6    6    5    5        0.5899739327
    6    6    6    5       -0.0618232429
    6    6    6    6        0.6348150604
    7    6    1    1       -0.0096080350
    7    6    2    1       -0.0022469533
    7    6    4    1        0.0039961368
    7    6    5    1        0.0051347003
    7    6    6    1       -0.0063444451
    7    6    7    1       -0.0056223685
    7    6    2    2       -0.0219702918
    7    6    3    2        0.0000000001
    7    6    4    2        0.0140261217
    7    6    5    2        0.0140650204
    7    6    6    2       -0.0124386891
    7    6    7    2       -0.0078742595
    7    6    3    3       -0.0028647936
    7    6    5    3       -0.0000000001
    7    6    4    4        0.0112261652
    7    6    5    4        0.0165207888
    7    6    6    4       -0.0173135143
    7    6    7    4        0.0063091268
    7    6    5    5       -0.0016313314
    7    6    6    5       -0.0020275491
    7    6    7    5       -0.0158900770
    7    6    6    6       -0.0026822219
    7    6    7    6        0.0218146968
    8    6    3    1        0.0048722064
    8    6    8    1       -0.0068199690
    8    6    2    2        0.0000000002
    8    6    3    2        0.0180632333
    8    6    8    2       -0.0067553704
    8    6    3    3       -0.0000000003
    8    6    4    3        0.0038034418
    8    6    5    3        0.0151416571
    8    6    6    3       -0.0147167165
    8    6    7    3       -0.0020730859
    8    6    8    4       -0.0000081899
    8    6    8    5       -0.0057672185
    8    6    8    6        0.0168105019
    7    7    1    1        1.0556365200
    7    7    2    1       -0.0029495692
    7    7    3    1        0.0000000001
    7    7    4    1        0.0092820683
    7    7    5    1       -0.0002350686
    7    7    6    1        0.0065314054
    7    7    7    1       -0.0147007798
    7    7    2    2        0.6293778201
    7    7    4    2        0.0712270846
    7    7    5    2       -0.0161867996
    7    7    6    2       -0.0164082592
    7    7    7    2       -0.0342180213
    7    7    3    3        0.6284375497
    7    7    4    3       -0.0000000005
    7    7    6    3        0.0000000001
    7    7    7    3        0.0000000004
    7    7    4    4        0.7445521635
    7    7    5    4        0.0046989508
    7    7    6    4       -0.0006261317
    7    7    7    4       -0.1138540976
    7    7    5    5        0.4968007573
    7    7    6    5       -0.1985360609
    7    7    7    5       -0.0025425872
    7    7    6    6        0.5006301094
    7    7    7    6        0.0104228733
    7    7    7    7        0.7824841047
    8    7    3    1        0.0076173564
    8    7    7    1        0.0000000001
    8    7    8    1       -0.0104308909
    8    7    2    2        0.0000000005
    8    7    3    2        0.0251503855
    8    7    7    2        0.0000000001
    8    7    8    2       -0.0081867451
    8    7    3    3       -0.0000000004
    8    7    4    3        0.0276193193
    8    7    5    3        0.0017067529
    8    7    6    3       -0.0026401865
    8    7    7    3       -0.0172773447
    8    7    4    4       -0.0000000001
    8    7    8    4       -0.0047719112
    8    7    8    5        0.0008154861
    8    7    8    6        0.0040484024
    8    7    7    7       -0.0000000002
    8    7    8    7        0.0296274461
    8    8    1    1        1.0173200003
    8    8    2    1       -0.0008847124
    8    8    3    1       -0.0000000002
    8    8    4    1       -0.0039800081
    8    8    5    1        0.0000156367
    8    8    6    1        0.0048443025
    8    8    7    1        0.0064729699
    8    8    8    1        0.0000000003
    8    8    2    2        0.6252787383
    8    8    3    2       -0.0000000013
    8    8    4    2        0.0086724832
    8    8    5    2       -0.0053379447
    8    8    6    2       -0.0233857090
    8    8    7    2       -0.0118099983
    8    8    8    2        0.0000000004
    8    8    3    3        0.6413829737
    8    8    4    3       -0.0000000002
    8    8    6    3        0.0000000003
    8    8    7    3        0.0000000004
    8    8    8    3       -0.1808249075
    8    8    4    4        0.5580526839
    8    8    5    4        0.0073547565
    8    8    6    4       -0.0026953984
    8    8    7    4       -0.1501369321
    8    8    8    4       -0.0000000003
    8    8    5    5        0.4860487503
    8    8    6    5       -0.1672660805
    8    8    7    5        0.0022865312
    8    8    8    5       -0.0000000003
    8    8    6    6        0.4921830281
    8    8    7    6       -0.0014258942
    8    8    8    6       -0.0000000002
    8    8    7    7        0.5741276107
    8    8    8    7       -0.0000000003
    8    8    8    8        0.5909112261
 end_two_electron_integrals
 enrep_tce =    7.4539457033163199     
  EHF(A)             =       -75.92990869
  EHF(total)         =       -75.92990869
  Shift (HFtot-HFA)  =        -0.00000000
 Cpu & wall time / sec            0.9            1.0
 T1-number-of-tasks                   15

 t1 file size   =               15
 t1 file name   = ./H2O.t1
 t1 file handle =       -998
 T2-number-of-boxes                  315

 t2 file size   =              315
 t2 file name   = ./H2O.t2
 t2 file handle =       -996
CCSD iterations
 ---------------------------------------------------------
 Iter          Residuum       Correlation     Cpu    Wall 
 ---------------------------------------------------------
NEW TASK SCHEDULING
CCSD_T1_NTS --- OK
CCSD_T2_NTS --- OK
    1   0.6572523690761  -0.2463021101000     1.7     2.6
    2   1.0088876334061   0.0649316379228     2.0     2.7
    3   1.5807175543494  -0.4130440100735     1.9     2.6
    4   2.4617191862262   0.3175781997444     1.7     2.7
    5   3.8797821906438  -0.8106909773157     1.9     2.6
 MICROCYCLE DIIS UPDATE:                    5                    5
    6   0.0162122439593  -0.1236729385229     1.8     2.6
    7   0.0209744637426  -0.1228163400976     1.8     2.7
    8   0.0362901732809  -0.1242511891309     1.9     2.7
    9   0.0685908457670  -0.1228505785662     1.8     2.8
   10   0.1332978696926  -0.1243595808300     1.9     2.6
 MICROCYCLE DIIS UPDATE:                   10                    5
   11   0.0005172832278  -0.1236273856141     1.7     2.6
   12   0.0004431466848  -0.1236297060772     1.7     2.6
   13   0.0005635349209  -0.1235824952223     2.0     2.7
   14   0.0008184311730  -0.1236690057054     1.8     2.7
   15   0.0012528450669  -0.1235247603129     1.7     2.7
 MICROCYCLE DIIS UPDATE:                   15                    5
   16   0.0000398809160  -0.1236155471180     1.8     2.7
   17   0.0000240957242  -0.1236150203521     1.6     2.6
   18   0.0000266618600  -0.1236180908050     1.9     2.6
   19   0.0000393772460  -0.1236140742157     1.8     2.6
   20   0.0000635991855  -0.1236203954735     1.8     2.6
 MICROCYCLE DIIS UPDATE:                   20                    5
   21   0.0000015026325  -0.1236166391676     1.9     2.6
   22   0.0000014419144  -0.1236166634611     1.8     2.6
   23   0.0000023330307  -0.1236165325864     1.8     2.6
   24   0.0000042985128  -0.1236167531579     1.8     2.7
   25   0.0000081974074  -0.1236164003958     1.8     2.7
 MICROCYCLE DIIS UPDATE:                   25                    5
   26   0.0000001479746  -0.1236166224167     1.8     2.6
   27   0.0000001093629  -0.1236166167767     1.7     2.6
   28   0.0000001423768  -0.1236166346380     1.9     2.7
   29   0.0000002237078  -0.1236166096923     1.9     2.7
   30   0.0000003666975  -0.1236166487315     1.9     2.7
 MICROCYCLE DIIS UPDATE:                   30                    5
   31   0.0000000064332  -0.1236166253067     1.9     2.7
 -----------------------------------------------------------------
 Iterations converged
 CCSD correlation energy / hartree =        -0.123616625306739
 CCSD total energy / hartree       =       -76.053525317670790

 Singles contributions

 Doubles contributions
     6a   (alpha)     7a   (alpha) ---     4a   (alpha)     5a   (alpha)        0.0205323555
     6a   (alpha)     8a   (alpha) ---     3a   (alpha)     5a   (alpha)        0.0290046411
     6a   (alpha)     6a   (beta ) ---     2a   (alpha)     2a   (beta )       -0.0207152298
     6a   (alpha)     6a   (beta ) ---     5a   (alpha)     5a   (beta )       -0.2215363575
     6a   (alpha)     7a   (beta ) ---     5a   (alpha)     4a   (beta )       -0.0360321328
     6a   (alpha)     8a   (beta ) ---     5a   (alpha)     3a   (beta )       -0.0406593881
     7a   (alpha)     8a   (alpha) ---     3a   (alpha)     4a   (alpha)        0.0309382358
     7a   (alpha)     6a   (beta ) ---     4a   (alpha)     5a   (beta )       -0.0360321328
     7a   (alpha)     7a   (beta ) ---     4a   (alpha)     4a   (beta )       -0.0886266053
     7a   (alpha)     8a   (beta ) ---     4a   (alpha)     3a   (beta )       -0.0412664455
     8a   (alpha)     6a   (beta ) ---     3a   (alpha)     5a   (beta )       -0.0406593881
     8a   (alpha)     7a   (beta ) ---     3a   (alpha)     4a   (beta )       -0.0412664455
     8a   (alpha)     8a   (beta ) ---     3a   (alpha)     3a   (beta )       -0.0587347643
 Ground state specification:
 exp(T)|Ref>~(1+T)|Ref>
 ------- a(p)+/a(q) strings ----------

 singles norm

 doubles norm

 Reference string
  0.97632865549104031      :(1a)+ (2a)+ (3a)+ (4a)+ (5a)+ (1b)+ (2b)+ (3b)+ (4b)+ (5b)+ |0>

 Singles strings

 Doubles strings
 -0.21629229405380490      :(6a)+ (6b)+ (5b)  (5a)  (1a)+ (2a)+ (3a)+ (4a)+ (5a)+ (1b)+ (2b)+ (3b)+ (4b)+ (5b)+ |0>
 -------------------------------------

 Parallel integral file used      16 records with       0 large values


 Task  times  cpu:       57.7s     wall:       84.4s


                                NWChem Input Module
                                -------------------


 Summary of allocated global arrays
-----------------------------------
  No active global arrays


MA_summarize_allocated_blocks: starting scan ...
MA_summarize_allocated_blocks: scan completed: 0 heap blocks, 0 stack blocks
MA usage statistics:

	allocation statistics:
					      heap	     stack
					      ----	     -----
	current number of blocks	         0	         0
	maximum number of blocks	        18	        42
	current total bytes		         0	         0
	maximum total bytes		  25775960	  38234456
	maximum total K-bytes		     25776	     38235
	maximum total M-bytes		        26	        39


                                     CITATION
                                     --------
                Please cite the following reference when publishing
                           results obtained with NWChem:

          E. Apra, E. J. Bylaska, W. A. de Jong, N. Govind, K. Kowalski,
       T. P. Straatsma, M. Valiev, H. J. J. van Dam, Y. Alexeev, J. Anchell,
       V. Anisimov, F. W. Aquino, R. Atta-Fynn, J. Autschbach, N. P. Bauman,
     J. C. Becca, D. E. Bernholdt, K. Bhaskaran-Nair, S. Bogatko, P. Borowski,
         J. Boschen, J. Brabec, A. Bruner, E. Cauet, Y. Chen, G. N. Chuev,
      C. J. Cramer, J. Daily, M. J. O. Deegan, T. H. Dunning Jr., M. Dupuis,
   K. G. Dyall, G. I. Fann, S. A. Fischer, A. Fonari, H. Fruchtl, L. Gagliardi,
      J. Garza, N. Gawande, S. Ghosh, K. Glaesemann, A. W. Gotz, J. Hammond,
       V. Helms, E. D. Hermes, K. Hirao, S. Hirata, M. Jacquelin, L. Jensen,
   B. G. Johnson, H. Jonsson, R. A. Kendall, M. Klemm, R. Kobayashi, V. Konkov,
      S. Krishnamoorthy, M. Krishnan, Z. Lin, R. D. Lins, R. J. Littlefield,
      A. J. Logsdail, K. Lopata, W. Ma, A. V. Marenich, J. Martin del Campo,
   D. Mejia-Rodriguez, J. E. Moore, J. M. Mullin, T. Nakajima, D. R. Nascimento,
    J. A. Nichols, P. J. Nichols, J. Nieplocha, A. Otero-de-la-Roza, B. Palmer,
    A. Panyala, T. Pirojsirikul, B. Peng, R. Peverati, J. Pittner, L. Pollack,
   R. M. Richard, P. Sadayappan, G. C. Schatz, W. A. Shelton, D. W. Silverstein,
   D. M. A. Smith, T. A. Soares, D. Song, M. Swart, H. L. Taylor, G. S. Thomas,
            V. Tipparaju, D. G. Truhlar, K. Tsemekhman, T. Van Voorhis,
      A. Vazquez-Mayagoitia, P. Verma, O. Villa, A. Vishnu, K. D. Vogiatzis,
        D. Wang, J. H. Weare, M. J. Williamson, T. L. Windus, K. Wolinski,
        A. T. Wong, Q. Wu, C. Yang, Q. Yu, M. Zacharias, Z. Zhang, Y. Zhao,
                                and R. J. Harrison
                        "NWChem: Past, present, and future
                         J. Chem. Phys. 152, 184102 (2020)
                               doi:10.1063/5.0004997

                                      AUTHORS
                                      -------
  E. Apra, E. J. Bylaska, N. Govind, K. Kowalski, M. Valiev, D. Mejia-Rodriguez,
       A. Kunitsa, N. P. Bauman, A. Panyala, W. A. de Jong, T. P. Straatsma,
        H. J. J. van Dam, D. Wang, T. L. Windus, J. Hammond, J. Autschbach,
    K. Bhaskaran-Nair, J. Brabec, K. Lopata, S. A. Fischer, S. Krishnamoorthy,
     M. Jacquelin, W. Ma, M. Klemm, O. Villa, Y. Chen, V. Anisimov, F. Aquino,
    S. Hirata, M. T. Hackler, Eric Hermes, L. Jensen, J. E. Moore, J. C. Becca,
      V. Konjkov, T. Risthaus, M. Malagoli, A. Marenich, A. Otero-de-la-Roza,
        J. Mullin, P. Nichols, R. Peverati, J. Pittner, Y. Zhao, P.-D. Fan,
        A. Fonari, M. J. Williamson, R. J. Harrison, J. R. Rehr, M. Dupuis,
     D. Silverstein, D. M. A. Smith, J. Nieplocha, V. Tipparaju, M. Krishnan,
     B. E. Van Kuiken, A. Vazquez-Mayagoitia, M. Swart, Q. Wu, T. Van Voorhis,
     A. A. Auer, M. Nooijen, L. D. Crosby, E. Brown, G. Cisneros, G. I. Fann,
   H. Fruchtl, J. Garza, K. Hirao, R. A. Kendall, J. A. Nichols, K. Tsemekhman,
    K. Wolinski, J. Anchell, D. E. Bernholdt, P. Borowski, T. Clark, D. Clerc,
   H. Dachsel, M. J. O. Deegan, K. Dyall, D. Elwood, E. Glendening, M. Gutowski,
   A. C. Hess, J. Jaffe, B. G. Johnson, J. Ju, R. Kobayashi, R. Kutteh, Z. Lin,
   R. Littlefield, X. Long, B. Meng, T. Nakajima, S. Niu, L. Pollack, M. Rosing,
   K. Glaesemann, G. Sandrone, M. Stave, H. Taylor, G. Thomas, J. H. van Lenthe,
                               A. T. Wong, Z. Zhang.

 Total times  cpu:       61.9s     wall:       92.5s
