 argument  1 = input.nw
  NWChem w/ OpenMP: maximum threads =    1



============================== echo of input deck ==============================
 echo
 start H2O
 title "H2O"

 memory total 24 gb

 geometry units bohr
 symmetry c1
        O  0.00000000  0.00000000  0.00000000
        H  0.00000000  3.0416925  0.00000000
        H  1.72558000 -0.64860000  0.00000000
 end

 basis spherical
   * library cc-pVTZ
 end

 mcscf
   active  8
   actelec 10
   multiplicity 1
   maxiter 40
   vectors input h2o.mos
   vectors output h2o.mos
 end

 task mcscf

 scf
   vectors input h2o.mos
   vectors output h2o-trash.mos
   noscf
 end

 tce
   2eorb
   2emet 13
   ccsd
   maxiter 300
 end

 set tce:print_integrals T
 set tce:qorb 8
 set tce:qela 5
 set tce:qelb 5

# set tce:qducc T
# set tce:nactv 3
# set tce:nonhf T
# set tce:ducc_model 6

 set tce:printtol 0.02

 task tce
================================================================================


                                         
                                         


             Northwest Computational Chemistry Package (NWChem) 7.0.1
             --------------------------------------------------------


                    Environmental Molecular Sciences Laboratory
                       Pacific Northwest National Laboratory
                                Richland, WA 99352

                              Copyright (c) 1994-2020
                       Pacific Northwest National Laboratory
                            Battelle Memorial Institute

             NWChem is an open-source computational chemistry package
                        distributed under the terms of the
                      Educational Community License (ECL) 2.0
             A copy of the license is included with this distribution
                              in the LICENSE.TXT file

                                  ACKNOWLEDGMENT
                                  --------------

            This software and its documentation were developed at the
            EMSL at Pacific Northwest National Laboratory, a multiprogram
            national laboratory, operated for the U.S. Department of Energy
            by Battelle under Contract Number DE-AC05-76RL01830. Support
            for this work was provided by the Department of Energy Office
            of Biological and Environmental Research, Office of Basic
            Energy Sciences, and the Office of Advanced Scientific Computing.


           Job information
           ---------------

    hostname        = WE46210
    program         = /home/baum612/code/nwchem/bin/LINUX64/nwchem
    date            = Wed Mar  6 09:33:35 2024

    compiled        = Fri_Feb_16_11:09:52_2024
    source          = /home/baum612/code/nwchem
    nwchem branch   = 7.0.0
    nwchem revision = nwchem_on_git-4191-g39d87d64de
    ga revision     = 5.8.1
    use scalapack   = F
    input           = input.nw
    prefix          = H2O.
    data base       = ./H2O.db
    status          = startup
    nproc           =        1
    time left       =     -1s



           Memory information
           ------------------

    heap     =  805306366 doubles =   6144.0 Mbytes
    stack    =  805306363 doubles =   6144.0 Mbytes
    global   = 1610612736 doubles =  12288.0 Mbytes (distinct from heap & stack)
    total    = 3221225465 doubles =  24576.0 Mbytes
    verify   = yes
    hardfail = no 


           Directory information
           ---------------------

  0 permanent = .
  0 scratch   = .




                                NWChem Input Module
                                -------------------


                                        H2O
                                        ---
 Turning off AUTOSYM since
 SYMMETRY directive was detected!


          ------
          auto-z
          ------
  autoz: The atoms group into disjoint clusters
 cluster   1:    1    3
 cluster   2:    2
 Connecting clusters   1   2 via atoms    1    2 r = 1.61
  autoz: regenerating connections with new bonds
  no constraints, skipping    0.0000000000000000     
  no constraints, skipping    0.0000000000000000     


                             Geometry "geometry" -> ""
                             -------------------------

 Output coordinates in a.u. (scale by  1.000000000 to convert to a.u.)

  No.       Tag          Charge          X              Y              Z
 ---- ---------------- ---------- -------------- -------------- --------------
    1 O                    8.0000    -0.17255800    -0.23930925     0.00000000
    2 H                    1.0000    -0.17255800     2.80238325     0.00000000
    3 H                    1.0000     1.55302200    -0.88790925     0.00000000

      Atomic Mass 
      ----------- 

      O                 15.994910
      H                  1.007825


 Effective nuclear repulsion energy (a.u.)       7.2152743399

            Nuclear Dipole moment (a.u.) 
            ----------------------------
        X                 Y               Z
 ---------------- ---------------- ----------------
    -0.0000000000    -0.0000000000     0.0000000000



                                Z-matrix (autoz)
                                -------- 

 Units are Angstrom for bonds and degrees for angles

      Type          Name      I     J     K     L     M      Value
      ----------- --------  ----- ----- ----- ----- ----- ----------
    1 Stretch                  1     2                       1.60959
    2 Stretch                  1     3                       0.97551
    3 Bend                     2     1     3               110.59992


            XYZ format geometry
            -------------------
     3
 geometry
 O                    -0.09131377    -0.12663701     0.00000000
 H                    -0.09131377     1.48295746     0.00000000
 H                     0.82182391    -0.46986137     0.00000000

 ==============================================================================
                                internuclear distances
 ------------------------------------------------------------------------------
       center one      |      center two      | atomic units |       a.u.
 ------------------------------------------------------------------------------
    3 H                |   1 O                |     1.84345  |     1.84345
 ------------------------------------------------------------------------------
                         number of included internuclear distances:          1
 ==============================================================================





 Summary of "ao basis" -> "" (spherical)
 ------------------------------------------------------------------------------
       Tag                 Description            Shells   Functions and Types
 ---------------- ------------------------------  ------  ---------------------
 *                          cc-pVTZ                   on all atoms 


                      Basis "ao basis" -> "ao basis" (spherical)
                      -----
  O (Oxygen)
  ----------
            Exponent  Coefficients 
       -------------- ---------------------------------------------------------
  1 S  1.53300000E+04  0.000508
  1 S  2.29900000E+03  0.003929
  1 S  5.22400000E+02  0.020243
  1 S  1.47300000E+02  0.079181
  1 S  4.75500000E+01  0.230687
  1 S  1.67600000E+01  0.433118
  1 S  6.20700000E+00  0.350260
  1 S  6.88200000E-01 -0.008154

  2 S  1.53300000E+04 -0.000115
  2 S  2.29900000E+03 -0.000895
  2 S  5.22400000E+02 -0.004636
  2 S  1.47300000E+02 -0.018724
  2 S  4.75500000E+01 -0.058463
  2 S  1.67600000E+01 -0.136463
  2 S  6.20700000E+00 -0.175740
  2 S  6.88200000E-01  0.603418

  3 S  1.75200000E+00  1.000000

  4 S  2.38400000E-01  1.000000

  5 P  3.44600000E+01  0.015928
  5 P  7.74900000E+00  0.099740
  5 P  2.28000000E+00  0.310492

  6 P  7.15600000E-01  1.000000

  7 P  2.14000000E-01  1.000000

  8 D  2.31400000E+00  1.000000

  9 D  6.45000000E-01  1.000000

 10 F  1.42800000E+00  1.000000

  H (Hydrogen)
  ------------
            Exponent  Coefficients 
       -------------- ---------------------------------------------------------
  1 S  3.38700000E+01  0.006068
  1 S  5.09500000E+00  0.045308
  1 S  1.15900000E+00  0.202822

  2 S  3.25800000E-01  1.000000

  3 S  1.02700000E-01  1.000000

  4 P  1.40700000E+00  1.000000

  5 P  3.88000000E-01  1.000000

  6 D  1.05700000E+00  1.000000



 Summary of "ao basis" -> "ao basis" (spherical)
 ------------------------------------------------------------------------------
       Tag                 Description            Shells   Functions and Types
 ---------------- ------------------------------  ------  ---------------------
 O                          cc-pVTZ                 10       30   4s3p2d1f
 H                          cc-pVTZ                  6       14   3s2p1d



                            NWChem Direct MCSCF Module
                            --------------------------


                                        H2O


     -----------------------------------
       Basis functions:             58
       Inactive shells:              0
       Active shells:                8
       Active electrons:            10
       Symmetry:                    a       
       Multiplicity:                 1
       Orbital rotations:          400
     -----------------------------------

     -----------------------------------
       E2 extrapolation:             F
       Conjugacy:                    T
       Micro CI relax:               T
       Canonical orbitals:           T
       Maximum iterations:          40
       Converge threshold:    1.00E-04
       Conjugacy resets:            20
       Initial levelshift:        0.10
     -----------------------------------

 Loading old vectors from job with title :

H2O


   input molecular orbitals = ./h2o.mos
  output molecular orbtials = ./h2o.mos

       No. of determinants:          3136


  Starting Orbital Energies
   -20.585236    -1.291701    -0.658858    -0.525836    -0.509369    -0.068927
    -0.026238    -0.014438     0.314180     0.352117     0.606129     0.775949
     0.787087     0.858582     0.954344     1.007237     1.016518     1.306240
     1.398890     1.787498     1.997933     2.054014     2.126975     2.184279
     2.693359     2.782425     3.365091     3.371752     3.425936     3.427299
     3.482170     3.576144     3.643713     3.717376     3.848765     3.907731
     3.978153     4.022021     4.088289     4.126043     4.395622     4.425164
     4.740247     4.871805     5.285935     5.648013     5.730837     5.856073
     6.064828     6.830363     6.864774     6.886177     6.893874     7.069613
     7.083062     7.385254     7.638418    10.903953

  Orbital Symmetry Irreps
a    a    a    a    a    a    a    a    a    a    a    a    a    a    a   
a    a    a    a    a    a    a    a    a    a    a    a    a    a    a   
a    a    a    a    a    a    a    a    a    a    a    a    a    a    a   
a    a    a    a    a    a    a    a    a    a    a    a    a   

 Integral file          = ./H2O.aoints.0
 Record size in doubles =  65536        No. of integs per rec  =  43688
 Max. records in memory =     49        Max. records in file   = 248749
 No. of bits per label  =      8        No. of bits per value  =     64


 #quartets = 3.213D+04 #integrals = 6.606D+05 #direct =  0.0% #cached =100.0%




          %%%%% MacroIteration   1 %%%%%


          Number of sigma calls:       20
                       o<<<<< (aa):             0.00
                       o<<<<< (bb):             0.00
                       o<<<<< (ab):             0.06
                       o<<<<< (total)           0.07
                       o<<<<< (aa) ff           0.00
                       o<<<<< (aa) gop          0.00
                       o<<<<< (aa) dot          0.00
                       o<<<<< (ab) str          0.00
                       o<<<<< (ab) gath         0.00
                       o<<<<< (ab) dotab        0.00
                       o<<<<< (ab) scat         0.00
                       o<<<<< (ab) sync         0.00
                       o<<<<< Density           0.01
                       o<<<<< Density one       0.00
                       o<<<<< Density two       0.00
                       o<<<<< Density ab        0.01
                       o<<<<< Spin adapt        0.54
                       o<<<<< Symm adapt        0.00

                       o<<<<< (ab) max sync:      0.00

           >>>| Valence CI:            -83.246959253254
           >>>| MCSCF energy:          -76.031684913400
           >>>| Gradient norm:          0.376614803D-01

                              ----- Line search ------

        step       energy         lsg     num-lsg   num-lsh   lsrat    time
      ------- ---------------- --------- --------- --------- ------- --------
       0.0000     -76.03168491 -2.39D-04  0.00D+00  0.00D+00 0.0D+00      1.2

          Number of sigma calls:       20
                       o<<<<< (aa):             0.00
                       o<<<<< (bb):             0.00
                       o<<<<< (ab):             0.07
                       o<<<<< (total)           0.07
                       o<<<<< (aa) ff           0.00
                       o<<<<< (aa) gop          0.00
                       o<<<<< (aa) dot          0.00
                       o<<<<< (ab) str          0.00
                       o<<<<< (ab) gath         0.00
                       o<<<<< (ab) dotab        0.00
                       o<<<<< (ab) scat         0.00
                       o<<<<< (ab) sync         0.00
                       o<<<<< Density           0.01
                       o<<<<< Density one       0.00
                       o<<<<< Density two       0.00
                       o<<<<< Density ab        0.01
                       o<<<<< Spin adapt        0.48
                       o<<<<< Symm adapt        0.00

                       o<<<<< (ab) max sync:      0.00
       1.0000     -76.03182427 -3.90D-05 -3.92D-05  2.00D-04 1.6D-01      1.9

          Number of sigma calls:       18
                       o<<<<< (aa):             0.00
                       o<<<<< (bb):             0.00
                       o<<<<< (ab):             0.06
                       o<<<<< (total)           0.06
                       o<<<<< (aa) ff           0.00
                       o<<<<< (aa) gop          0.00
                       o<<<<< (aa) dot          0.00
                       o<<<<< (ab) str          0.00
                       o<<<<< (ab) gath         0.00
                       o<<<<< (ab) dotab        0.00
                       o<<<<< (ab) scat         0.00
                       o<<<<< (ab) sync         0.00
                       o<<<<< Density           0.01
                       o<<<<< Density one       0.00
                       o<<<<< Density two       0.00
                       o<<<<< Density ab        0.01
                       o<<<<< Spin adapt        0.44
                       o<<<<< Symm adapt        0.00

                       o<<<<< (ab) max sync:      0.00
       1.1948     -76.03182806  1.72D-07  1.67D-07  2.01D-04 7.2D-04      2.5
     --- Orbitals canonicalized ---



          %%%%% MacroIteration   2 %%%%%


          Number of sigma calls:       18
                       o<<<<< (aa):             0.00
                       o<<<<< (bb):             0.00
                       o<<<<< (ab):             0.06
                       o<<<<< (total)           0.07
                       o<<<<< (aa) ff           0.00
                       o<<<<< (aa) gop          0.00
                       o<<<<< (aa) dot          0.00
                       o<<<<< (ab) str          0.00
                       o<<<<< (ab) gath         0.00
                       o<<<<< (ab) dotab        0.00
                       o<<<<< (ab) scat         0.00
                       o<<<<< (ab) sync         0.00
                       o<<<<< Density           0.00
                       o<<<<< Density one       0.00
                       o<<<<< Density two       0.00
                       o<<<<< Density ab        0.00
                       o<<<<< Spin adapt        0.37
                       o<<<<< Symm adapt        0.00

                       o<<<<< (ab) max sync:      0.00

           >>>| Valence CI:            -83.247102396895
           >>>| MCSCF energy:          -76.031828057041
           >>>| Gradient norm:          0.739605383D-02
     --- Warning:    3 Hessian diagonals < 0.05 ---
     --- Conjugacy reset ---

                              ----- Line search ------

        step       energy         lsg     num-lsg   num-lsh   lsrat    time
      ------- ---------------- --------- --------- --------- ------- --------
       0.0000     -76.03182806 -1.23D-05  0.00D+00  0.00D+00 0.0D+00      3.1

          Number of sigma calls:       17
                       o<<<<< (aa):             0.00
                       o<<<<< (bb):             0.00
                       o<<<<< (ab):             0.06
                       o<<<<< (total)           0.07
                       o<<<<< (aa) ff           0.00
                       o<<<<< (aa) gop          0.00
                       o<<<<< (aa) dot          0.00
                       o<<<<< (ab) str          0.00
                       o<<<<< (ab) gath         0.00
                       o<<<<< (ab) dotab        0.00
                       o<<<<< (ab) scat         0.00
                       o<<<<< (ab) sync         0.00
                       o<<<<< Density           0.01
                       o<<<<< Density one       0.00
                       o<<<<< Density two       0.00
                       o<<<<< Density ab        0.01
                       o<<<<< Spin adapt        0.37
                       o<<<<< Symm adapt        0.00

                       o<<<<< (ab) max sync:      0.00
       1.0000     -76.03183587 -3.30D-06 -3.31D-06  9.01D-06 2.7D-01      3.7

          Number of sigma calls:       16
                       o<<<<< (aa):             0.00
                       o<<<<< (bb):             0.00
                       o<<<<< (ab):             0.04
                       o<<<<< (total)           0.05
                       o<<<<< (aa) ff           0.00
                       o<<<<< (aa) gop          0.00
                       o<<<<< (aa) dot          0.00
                       o<<<<< (ab) str          0.00
                       o<<<<< (ab) gath         0.00
                       o<<<<< (ab) dotab        0.00
                       o<<<<< (ab) scat         0.00
                       o<<<<< (ab) sync         0.00
                       o<<<<< Density           0.01
                       o<<<<< Density one       0.00
                       o<<<<< Density two       0.00
                       o<<<<< Density ab        0.01
                       o<<<<< Spin adapt        0.43
                       o<<<<< Symm adapt        0.00

                       o<<<<< (ab) max sync:      0.00
       1.3666     -76.03183647  1.97D-08  1.89D-08  9.06D-06 1.6D-03      4.3



          %%%%% MacroIteration   3 %%%%%


          Number of sigma calls:        1
                       o<<<<< (aa):             0.00
                       o<<<<< (bb):             0.00
                       o<<<<< (ab):             0.00
                       o<<<<< (total)           0.01
                       o<<<<< (aa) ff           0.00
                       o<<<<< (aa) gop          0.00
                       o<<<<< (aa) dot          0.00
                       o<<<<< (ab) str          0.00
                       o<<<<< (ab) gath         0.00
                       o<<<<< (ab) dotab        0.00
                       o<<<<< (ab) scat         0.00
                       o<<<<< (ab) sync         0.00
                       o<<<<< Density           0.00
                       o<<<<< Density one       0.00
                       o<<<<< Density two       0.00
                       o<<<<< Density ab        0.00
                       o<<<<< Spin adapt        0.00
                       o<<<<< Symm adapt        0.00

                       o<<<<< (ab) max sync:      0.00

           >>>| Valence CI:            -83.247110810632
           >>>| MCSCF energy:          -76.031836470779
           >>>| Gradient norm:          0.231655759D-02
     --- Warning:    3 Hessian diagonals < 0.05 ---

                              ----- Line search ------

        step       energy         lsg     num-lsg   num-lsh   lsrat    time
      ------- ---------------- --------- --------- --------- ------- --------
       0.0000     -76.03183647 -8.47D-07  0.00D+00  0.00D+00 0.0D+00      4.4

          Number of sigma calls:       15
                       o<<<<< (aa):             0.00
                       o<<<<< (bb):             0.00
                       o<<<<< (ab):             0.05
                       o<<<<< (total)           0.05
                       o<<<<< (aa) ff           0.00
                       o<<<<< (aa) gop          0.00
                       o<<<<< (aa) dot          0.00
                       o<<<<< (ab) str          0.00
                       o<<<<< (ab) gath         0.00
                       o<<<<< (ab) dotab        0.00
                       o<<<<< (ab) scat         0.00
                       o<<<<< (ab) sync         0.00
                       o<<<<< Density           0.01
                       o<<<<< Density one       0.00
                       o<<<<< Density two       0.00
                       o<<<<< Density ab        0.01
                       o<<<<< Spin adapt        0.35
                       o<<<<< Symm adapt        0.00

                       o<<<<< (ab) max sync:      0.00
       1.0000     -76.03183696 -1.28D-07 -1.28D-07  7.20D-07 1.5D-01      4.9

          Number of sigma calls:       12
                       o<<<<< (aa):             0.00
                       o<<<<< (bb):             0.00
                       o<<<<< (ab):             0.04
                       o<<<<< (total)           0.04
                       o<<<<< (aa) ff           0.00
                       o<<<<< (aa) gop          0.00
                       o<<<<< (aa) dot          0.00
                       o<<<<< (ab) str          0.00
                       o<<<<< (ab) gath         0.00
                       o<<<<< (ab) dotab        0.00
                       o<<<<< (ab) scat         0.00
                       o<<<<< (ab) sync         0.00
                       o<<<<< Density           0.01
                       o<<<<< Density one       0.00
                       o<<<<< Density two       0.00
                       o<<<<< Density ab        0.01
                       o<<<<< Spin adapt        0.29
                       o<<<<< Symm adapt        0.00

                       o<<<<< (ab) max sync:      0.00
       1.1774     -76.03183697  3.31D-11  3.10D-11  7.20D-07 3.9D-05      5.4



          %%%%% MacroIteration   4 %%%%%


          Number of sigma calls:        1
                       o<<<<< (aa):             0.00
                       o<<<<< (bb):             0.00
                       o<<<<< (ab):             0.01
                       o<<<<< (total)           0.01
                       o<<<<< (aa) ff           0.00
                       o<<<<< (aa) gop          0.00
                       o<<<<< (aa) dot          0.00
                       o<<<<< (ab) str          0.00
                       o<<<<< (ab) gath         0.00
                       o<<<<< (ab) dotab        0.00
                       o<<<<< (ab) scat         0.00
                       o<<<<< (ab) sync         0.00
                       o<<<<< Density           0.00
                       o<<<<< Density one       0.00
                       o<<<<< Density two       0.00
                       o<<<<< Density ab        0.00
                       o<<<<< Spin adapt        0.00
                       o<<<<< Symm adapt        0.00

                       o<<<<< (ab) max sync:      0.00

           >>>| Valence CI:            -83.247111309413
           >>>| MCSCF energy:          -76.031836969559
           >>>| Gradient norm:          0.454287093D-03
     --- Warning:    3 Hessian diagonals < 0.05 ---

                              ----- Line search ------

        step       energy         lsg     num-lsg   num-lsh   lsrat    time
      ------- ---------------- --------- --------- --------- ------- --------
       0.0000     -76.03183697 -4.55D-08  0.00D+00  0.00D+00 0.0D+00      5.5

          Number of sigma calls:       13
                       o<<<<< (aa):             0.00
                       o<<<<< (bb):             0.00
                       o<<<<< (ab):             0.05
                       o<<<<< (total)           0.05
                       o<<<<< (aa) ff           0.00
                       o<<<<< (aa) gop          0.00
                       o<<<<< (aa) dot          0.00
                       o<<<<< (ab) str          0.00
                       o<<<<< (ab) gath         0.00
                       o<<<<< (ab) dotab        0.00
                       o<<<<< (ab) scat         0.00
                       o<<<<< (ab) sync         0.00
                       o<<<<< Density           0.01
                       o<<<<< Density one       0.00
                       o<<<<< Density two       0.00
                       o<<<<< Density ab        0.01
                       o<<<<< Spin adapt        0.36
                       o<<<<< Symm adapt        0.00

                       o<<<<< (ab) max sync:      0.00
       1.0000     -76.03183700 -1.31D-08 -1.31D-08  3.24D-08 2.9D-01      6.0

          Number of sigma calls:       12
                       o<<<<< (aa):             0.00
                       o<<<<< (bb):             0.00
                       o<<<<< (ab):             0.04
                       o<<<<< (total)           0.04
                       o<<<<< (aa) ff           0.00
                       o<<<<< (aa) gop          0.00
                       o<<<<< (aa) dot          0.00
                       o<<<<< (ab) str          0.00
                       o<<<<< (ab) gath         0.00
                       o<<<<< (ab) dotab        0.00
                       o<<<<< (ab) scat         0.00
                       o<<<<< (ab) sync         0.00
                       o<<<<< Density           0.00
                       o<<<<< Density one       0.00
                       o<<<<< Density two       0.00
                       o<<<<< Density ab        0.00
                       o<<<<< Spin adapt        0.30
                       o<<<<< Symm adapt        0.00

                       o<<<<< (ab) max sync:      0.00
       1.4039     -76.03183700  4.05D-12  3.90D-12  3.24D-08 8.9D-05      6.4



          %%%%% MacroIteration   5 %%%%%


          Number of sigma calls:        1
                       o<<<<< (aa):             0.00
                       o<<<<< (bb):             0.00
                       o<<<<< (ab):             0.00
                       o<<<<< (total)           0.00
                       o<<<<< (aa) ff           0.00
                       o<<<<< (aa) gop          0.00
                       o<<<<< (aa) dot          0.00
                       o<<<<< (ab) str          0.00
                       o<<<<< (ab) gath         0.00
                       o<<<<< (ab) dotab        0.00
                       o<<<<< (ab) scat         0.00
                       o<<<<< (ab) sync         0.00
                       o<<<<< Density           0.00
                       o<<<<< Density one       0.00
                       o<<<<< Density two       0.00
                       o<<<<< Density ab        0.00
                       o<<<<< Spin adapt        0.00
                       o<<<<< Symm adapt        0.00

                       o<<<<< (ab) max sync:      0.00

           >>>| Valence CI:            -83.247111341331
           >>>| MCSCF energy:          -76.031837001477
           >>>| Gradient norm:          0.275607879D-04




     ==============================
            MCSCF Converged
     ==============================



          Canonical Eigenvalues

              1      
    1  -20.5886
    2   -1.2926
    3   -0.6590
    4   -0.5280
    5   -0.5005
    6   -0.0755
    7   -0.0263
    8   -0.0143
    9    0.3126
   10    0.3557
   11    0.6066
   12    0.7814
   13    0.7837
   14    0.8628
   15    0.9514
   16    0.9872
   17    1.0073
   18    1.3114
   19    1.3949
   20    1.7774
   21    1.9870
   22    2.0534
   23    2.0993
   24    2.1822
   25    2.6843
   26    2.7844
   27    3.3640
   28    3.3812
   29    3.4277
   30    3.4278
   31    3.4741
   32    3.5750
   33    3.6490
   34    3.6843
   35    3.8475
   36    3.9012
   37    3.9763
   38    4.0099
   39    4.0786
   40    4.1096
   41    4.3706
   42    4.4209
   43    4.7084
   44    4.8360
   45    5.2530
   46    5.6273
   47    5.7028
   48    5.8427
   49    6.0024
   50    6.8138
   51    6.8588
   52    6.8764
   53    6.8778
   54    7.0617
   55    7.0792
   56    7.3493
   57    7.6228
   58   10.8981


          Converged CI vector

   Index           Coefficient          Config. Occupation
         1         -0.93561492          1  2  3  4  5  1  2  3  4  5
         2         -0.09613762          1  2  3  4  5  1  2  3  4  6
        23          0.06919097          1  2  3  4  5  1  2  3  5  8
         9          0.04243714          1  2  3  4  5  1  2  4  5  7
        41         -0.02466483          1  2  3  4  5  1  2  5  7  8
        57         -0.09613762          1  2  3  4  6  1  2  3  4  5
        58          0.24324095          1  2  3  4  6  1  2  3  4  6
        79         -0.02704433          1  2  3  4  6  1  2  3  5  8
        83         -0.02181791          1  2  3  4  6  1  2  3  6  8
        60         -0.05615779          1  2  3  4  6  1  2  4  5  6
        65         -0.02109764          1  2  3  4  6  1  2  4  5  7
      1233          0.06919097          1  2  3  5  8  1  2  3  4  5
      1234         -0.02704433          1  2  3  5  8  1  2  3  4  6
      1255          0.05115561          1  2  3  5  8  1  2  3  5  8
      1241          0.03139612          1  2  3  5  8  1  2  4  5  7
      1458         -0.02181791          1  2  3  6  8  1  2  3  4  6
       170         -0.05615779          1  2  4  5  6  1  2  3  4  6
       172          0.02325491          1  2  4  5  6  1  2  4  5  6
       449          0.04243714          1  2  4  5  7  1  2  3  4  5
       450         -0.02109764          1  2  4  5  7  1  2  3  4  6
       471          0.03139612          1  2  4  5  7  1  2  3  5  8
       457          0.06569642          1  2  4  5  7  1  2  4  5  7
       458          0.02816799          1  2  4  5  7  1  3  4  5  7
       685         -0.02072086          1  2  4  6  7  1  2  4  6  7
      2241         -0.02466483          1  2  5  7  8  1  2  3  4  5
       513          0.02816799          1  3  4  5  7  1  2  4  5  7
       514          0.02657278          1  3  4  5  7  1  3  4  5  7

          Number of sigma calls:        1
                       o<<<<< (aa):             0.00
                       o<<<<< (bb):             0.00
                       o<<<<< (ab):             0.00
                       o<<<<< (total)           0.01
                       o<<<<< (aa) ff           0.00
                       o<<<<< (aa) gop          0.00
                       o<<<<< (aa) dot          0.00
                       o<<<<< (ab) str          0.00
                       o<<<<< (ab) gath         0.00
                       o<<<<< (ab) dotab        0.00
                       o<<<<< (ab) scat         0.00
                       o<<<<< (ab) sync         0.00
                       o<<<<< Density           0.00
                       o<<<<< Density one       0.00
                       o<<<<< Density two       0.00
                       o<<<<< Density ab        0.00
                       o<<<<< Spin adapt        0.00
                       o<<<<< Symm adapt        0.00

                       o<<<<< (ab) max sync:      0.00



          Natural orbital occupation numbers

              1      
    1    2.0000
    2    1.9980
    3    1.9812
    4    1.9738
    5    1.8442
    6    0.1576
    7    0.0270
    8    0.0181


          Number of sigma calls:       20
                       o<<<<< (aa):             0.00
                       o<<<<< (bb):             0.00
                       o<<<<< (ab):             0.07
                       o<<<<< (total)           0.08
                       o<<<<< (aa) ff           0.00
                       o<<<<< (aa) gop          0.00
                       o<<<<< (aa) dot          0.00
                       o<<<<< (ab) str          0.00
                       o<<<<< (ab) gath         0.00
                       o<<<<< (ab) dotab        0.00
                       o<<<<< (ab) scat         0.00
                       o<<<<< (ab) sync         0.00
                       o<<<<< Density           0.01
                       o<<<<< Density one       0.00
                       o<<<<< Density two       0.00
                       o<<<<< Density ab        0.01
                       o<<<<< Spin adapt        0.56
                       o<<<<< Symm adapt        0.00

                       o<<<<< (ab) max sync:      0.00


       Final MCSCF results 
       ------------------- 

       Total MCSCF energy =    -76.031837001477
            Gradient norm =      2.8D-05

    CPU time for solution =      7.2s
   Wall time for solution =     13.4s



                        Analysis of MCSCF natural orbitals
                        ----------------------------------

 Vector    1  Occ=1.999991D+00  E=-2.058862D+01  Symmetry=a
              MO Center= -9.1D-02, -1.3D-01, -9.9D-08, r^2= 1.5D-02
   Bfn.  Coefficient  Atom+Function         Bfn.  Coefficient  Atom+Function  
  ----- ------------  ---------------      ----- ------------  ---------------
     1      0.974865  1 O  s          

 Vector    2  Occ=1.998020D+00  E=-1.292576D+00  Symmetry=a
              MO Center= -2.8D-01, -1.4D-01,  6.2D-05, r^2= 4.3D-01
   Bfn.  Coefficient  Atom+Function         Bfn.  Coefficient  Atom+Function  
  ----- ------------  ---------------      ----- ------------  ---------------
     2      0.546299  1 O  s                  4      0.401619  1 O  s          
     3      0.151774  1 O  s          

 Vector    3  Occ=1.981238D+00  E=-6.590229D-01  Symmetry=a
              MO Center= -6.2D-02, -1.3D-01, -6.2D-05, r^2= 6.4D-01
   Bfn.  Coefficient  Atom+Function         Bfn.  Coefficient  Atom+Function  
  ----- ------------  ---------------      ----- ------------  ---------------
    10      0.439778  1 O  pz                13      0.390043  1 O  pz         
     7      0.366834  1 O  pz         

 Vector    4  Occ=1.973795D+00  E=-5.279938D-01  Symmetry=a
              MO Center=  3.4D-01, -2.6D-01, -2.8D-07, r^2= 5.9D-01
   Bfn.  Coefficient  Atom+Function         Bfn.  Coefficient  Atom+Function  
  ----- ------------  ---------------      ----- ------------  ---------------
     8      0.342360  1 O  px                 5      0.285905  1 O  px         
    46      0.272525  3 H  s                 11      0.197165  1 O  px         
    45      0.186598  3 H  s          

 Vector    5  Occ=1.844199D+00  E=-5.005472D-01  Symmetry=a
              MO Center= -5.0D-02,  5.6D-01, -1.7D-07, r^2= 1.2D+00
   Bfn.  Coefficient  Atom+Function         Bfn.  Coefficient  Atom+Function  
  ----- ------------  ---------------      ----- ------------  ---------------
     9      0.322560  1 O  py                32      0.290691  2 H  s          
     6      0.254233  1 O  py                12      0.222061  1 O  py         
    33      0.201265  2 H  s          

 Vector    6  Occ=1.576182D-01  E=-7.553410D-02  Symmetry=a
              MO Center= -6.5D-02,  8.1D-01, -4.6D-07, r^2= 1.2D+00
   Bfn.  Coefficient  Atom+Function         Bfn.  Coefficient  Atom+Function  
  ----- ------------  ---------------      ----- ------------  ---------------
    32      0.475226  2 H  s                  9     -0.422015  1 O  py         
     6     -0.338812  1 O  py                33      0.236135  2 H  s          
    31      0.216264  2 H  s          

 Vector    7  Occ=2.704583D-02  E=-2.626151D-02  Symmetry=a
              MO Center=  5.2D-01, -3.2D-01, -3.6D-06, r^2= 6.4D-01
   Bfn.  Coefficient  Atom+Function         Bfn.  Coefficient  Atom+Function  
  ----- ------------  ---------------      ----- ------------  ---------------
    46      0.667877  3 H  s                  5     -0.497480  1 O  px         
     8     -0.433717  1 O  px                45      0.316592  3 H  s          
     2     -0.285344  1 O  s                  4     -0.230156  1 O  s          

 Vector    8  Occ=1.809283D-02  E=-1.426943D-02  Symmetry=a
              MO Center=  1.4D-02, -1.3D-01, -8.0D-05, r^2= 1.3D+00
   Bfn.  Coefficient  Atom+Function         Bfn.  Coefficient  Atom+Function  
  ----- ------------  ---------------      ----- ------------  ---------------
    13      0.845235  1 O  pz                 7     -0.615096  1 O  pz         
    10     -0.325720  1 O  pz         

 Vector    9  Occ=0.000000D+00  E= 3.125943D-01  Symmetry=a
              MO Center=  1.1D+00, -7.0D-01,  2.3D-05, r^2= 3.6D+00
   Bfn.  Coefficient  Atom+Function         Bfn.  Coefficient  Atom+Function  
  ----- ------------  ---------------      ----- ------------  ---------------
    47      2.026432  3 H  s                  4     -1.393613  1 O  s          
    11     -0.681263  1 O  px                51     -0.486509  3 H  px         
    52      0.186738  3 H  py                12      0.161785  1 O  py         
    46     -0.160211  3 H  s          

 Vector   10  Occ=0.000000D+00  E= 3.557329D-01  Symmetry=a
              MO Center= -1.4D-01,  1.8D+00,  7.9D-07, r^2= 3.4D+00
   Bfn.  Coefficient  Atom+Function         Bfn.  Coefficient  Atom+Function  
  ----- ------------  ---------------      ----- ------------  ---------------
    33      1.894613  2 H  s                 32     -1.168996  2 H  s          
    47     -0.620756  3 H  s                 12     -0.362613  1 O  py         
     4     -0.314339  1 O  s                 46      0.264133  3 H  s          

 Vector   11  Occ=0.000000D+00  E= 6.065880D-01  Symmetry=a
              MO Center= -3.2D-01,  5.1D-01, -3.1D-06, r^2= 2.1D+00
   Bfn.  Coefficient  Atom+Function         Bfn.  Coefficient  Atom+Function  
  ----- ------------  ---------------      ----- ------------  ---------------
    46      2.402479  3 H  s                  4     -1.914637  1 O  s          
    11     -1.873393  1 O  px                51     -0.706786  3 H  px         
    12      0.536648  1 O  py                37     -0.407008  2 H  px         
    47      0.291768  3 H  s                 33     -0.210928  2 H  s          
    32      0.161698  2 H  s                  9      0.152354  1 O  py         

 Vector   12  Occ=0.000000D+00  E= 7.814028D-01  Symmetry=a
              MO Center=  1.5D-01, -3.1D-01, -2.0D-05, r^2= 2.3D+00
   Bfn.  Coefficient  Atom+Function         Bfn.  Coefficient  Atom+Function  
  ----- ------------  ---------------      ----- ------------  ---------------
    46      1.555344  3 H  s                  4     -1.372239  1 O  s          
    12      1.297134  1 O  py                11     -1.166792  1 O  px         
    52      0.707741  3 H  py                 9     -0.493365  1 O  py         
    47      0.492723  3 H  s                 51     -0.388507  3 H  px         
    33     -0.364514  2 H  s                 37      0.319217  2 H  px         

 Vector   13  Occ=0.000000D+00  E= 7.836879D-01  Symmetry=a
              MO Center=  1.3D-01,  9.6D-01,  2.3D-05, r^2= 1.9D+00
   Bfn.  Coefficient  Atom+Function         Bfn.  Coefficient  Atom+Function  
  ----- ------------  ---------------      ----- ------------  ---------------
    39      0.888825  2 H  pz                53     -0.589582  3 H  pz         

 Vector   14  Occ=0.000000D+00  E= 8.627870D-01  Symmetry=a
              MO Center= -3.4D-01,  1.1D-01, -4.8D-06, r^2= 2.5D+00
   Bfn.  Coefficient  Atom+Function         Bfn.  Coefficient  Atom+Function  
  ----- ------------  ---------------      ----- ------------  ---------------
    11      1.159576  1 O  px                46     -1.033261  3 H  s          
    12      1.000515  1 O  py                37     -0.742996  2 H  px         
    52     -0.581724  3 H  py                32     -0.503820  2 H  s          
     4      0.411013  1 O  s                  9     -0.385338  1 O  py         
    47      0.354097  3 H  s                  2      0.301324  1 O  s          

 Vector   15  Occ=0.000000D+00  E= 9.513585D-01  Symmetry=a
              MO Center=  3.0D-01,  1.6D-02, -1.6D-05, r^2= 2.3D+00
   Bfn.  Coefficient  Atom+Function         Bfn.  Coefficient  Atom+Function  
  ----- ------------  ---------------      ----- ------------  ---------------
    53      1.132128  3 H  pz                13     -0.990025  1 O  pz         
    39      0.611823  2 H  pz         

 Vector   16  Occ=0.000000D+00  E= 9.871979D-01  Symmetry=a
              MO Center=  3.8D-02,  1.2D+00,  2.4D-05, r^2= 1.8D+00
   Bfn.  Coefficient  Atom+Function         Bfn.  Coefficient  Atom+Function  
  ----- ------------  ---------------      ----- ------------  ---------------
    38      1.026148  2 H  py                 4     -0.651367  1 O  s          
    33     -0.515425  2 H  s                  2      0.454575  1 O  s          
    47      0.456813  3 H  s                 52      0.402897  3 H  py         
    32      0.355382  2 H  s                 11     -0.316063  1 O  px         
    46      0.305817  3 H  s                  9      0.184363  1 O  py         

 Vector   17  Occ=0.000000D+00  E= 1.007306D+00  Symmetry=a
              MO Center=  2.7D-01,  8.6D-02,  1.6D-05, r^2= 2.6D+00
   Bfn.  Coefficient  Atom+Function         Bfn.  Coefficient  Atom+Function  
  ----- ------------  ---------------      ----- ------------  ---------------
     4      2.036006  1 O  s                 46     -1.817048  3 H  s          
    12     -1.334237  1 O  py                11      1.089676  1 O  px         
    51      1.005416  3 H  px                52      0.687334  3 H  py         
    37     -0.676702  2 H  px                47     -0.502234  3 H  s          
    38     -0.377610  2 H  py                 2     -0.358437  1 O  s          

 Vector   18  Occ=0.000000D+00  E= 1.311368D+00  Symmetry=a
              MO Center=  1.6D-02,  1.1D-01,  4.0D-05, r^2= 2.2D+00
   Bfn.  Coefficient  Atom+Function         Bfn.  Coefficient  Atom+Function  
  ----- ------------  ---------------      ----- ------------  ---------------
     4      4.946712  1 O  s                 46     -2.945003  3 H  s          
    51      1.770667  3 H  px                11      1.364567  1 O  px         
    52     -1.109553  3 H  py                 8      0.927271  1 O  px         
    38      0.881993  2 H  py                 2     -0.772821  1 O  s          
    47     -0.747302  3 H  s                 12      0.574407  1 O  py         


 Wrote Lagrangian and 1- and 2-particle density matrices to ./H2O.mcpdm


     Multipole analysis of the density
     ---------------------------------

     L   x y z        total        nuclear
     -   - - -        -----        -------
     0   0 0 0     -0.000000     10.000000

     1   1 0 0      0.549355     -0.000000
     1   0 1 0      0.278376     -0.000000
     1   0 0 1      0.000004      0.000000

     2   2 0 0     -4.461479      2.679864
     2   1 1 0     -0.807492     -1.532158
     2   1 0 1     -0.000004      0.000000
     2   0 2 0     -3.095193      9.099886
     2   0 1 1     -0.000003      0.000000
     2   0 0 2     -5.884874      0.000000


  Mulliken analysis of the total density
  --------------------------------------

    Atom       Charge   Shell Charges
 -----------   ------   -------------------------------------------------------
    1 O    8     8.39   1.95  1.04  0.25  0.64  1.22  1.98  1.30  0.00  0.01  0.00
    2 H    1     0.85   0.15  0.44  0.24  0.00  0.02  0.00
    3 H    1     0.76   0.25  0.39  0.04  0.02  0.06  0.01

    Mulliken analysis of the active space density
    ---------------------------------------------

    Atom       Charge   Shell Charges
 -----------   ------   -------------------------------------------------------
    1 O    8     8.39   1.95  1.04  0.25  0.64  1.22  1.98  1.30  0.00  0.01  0.00
    2 H    1     0.85   0.15  0.44  0.24  0.00  0.02  0.00
    3 H    1     0.76   0.25  0.39  0.04  0.02  0.06  0.01

 Parallel integral file used      16 records with       0 large values


 Task  times  cpu:        7.3s     wall:       13.4s


                                NWChem Input Module
                                -------------------


                                 NWChem SCF Module
                                 -----------------


                                        H2O



  ao basis        = "ao basis"
  functions       =    58
  atoms           =     3
  closed shells   =     5
  open shells     =     0
  charge          =   0.00
  wavefunction    = RHF 
  input vectors   = ./h2o.mos
  output vectors  = ./h2o-trash.mos
  use symmetry    = F
  symmetry adapt  = F


 Summary of "ao basis" -> "ao basis" (spherical)
 ------------------------------------------------------------------------------
       Tag                 Description            Shells   Functions and Types
 ---------------- ------------------------------  ------  ---------------------
 O                          cc-pVTZ                 10       30   4s3p2d1f
 H                          cc-pVTZ                  6       14   3s2p1d



 Forming initial guess at      13.5s


 Loading old vectors from job with title :

H2O


 Starting SCF solution at      13.5s



 ----------------------------------------------
         Quadratically convergent ROHF

 Convergence threshold     :          1.000E-04
 Maximum no. of iterations :           30
 Final Fock-matrix accuracy:          1.000E-07
 ----------------------------------------------


 Integral file          = ./H2O.aoints.0
 Record size in doubles =  65536        No. of integs per rec  =  43688
 Max. records in memory =     49        Max. records in file   = 248787
 No. of bits per label  =      8        No. of bits per value  =     64


 #quartets = 3.213D+04 #integrals = 6.603D+05 #direct =  0.0% #cached =100.0%



       Final RHF  results 
       ------------------ 

         Total SCF energy =    -75.896168662939
      One-electron energy =   -119.203712350346
      Two-electron energy =     36.092269347552
 Nuclear repulsion energy =      7.215274339854

        Time for solution =      0.1s


             Final eigenvalues
             -----------------

              1      
    1  -20.5886
    2   -1.2926
    3   -0.6590
    4   -0.5280
    5   -0.5005
    6   -0.0755
    7   -0.0263
    8   -0.0143
    9    0.3126
   10    0.3557
   11    0.6066
   12    0.7814
   13    0.7837
   14    0.8628
   15    0.9514

                       ROHF Final Molecular Orbital Analysis
                       -------------------------------------

 Vector    2  Occ=2.000000D+00  E=-1.292576D+00
              MO Center= -2.8D-01, -1.4D-01,  6.2D-05, r^2= 4.3D-01
   Bfn.  Coefficient  Atom+Function         Bfn.  Coefficient  Atom+Function  
  ----- ------------  ---------------      ----- ------------  ---------------
     2      0.546299  1 O  s                  4      0.401619  1 O  s          
     3      0.151774  1 O  s          

 Vector    3  Occ=2.000000D+00  E=-6.590229D-01
              MO Center= -6.2D-02, -1.3D-01, -6.2D-05, r^2= 6.4D-01
   Bfn.  Coefficient  Atom+Function         Bfn.  Coefficient  Atom+Function  
  ----- ------------  ---------------      ----- ------------  ---------------
    10      0.439778  1 O  pz                13      0.390043  1 O  pz         
     7      0.366834  1 O  pz         

 Vector    4  Occ=2.000000D+00  E=-5.279938D-01
              MO Center=  3.4D-01, -2.6D-01, -2.8D-07, r^2= 5.9D-01
   Bfn.  Coefficient  Atom+Function         Bfn.  Coefficient  Atom+Function  
  ----- ------------  ---------------      ----- ------------  ---------------
     8      0.342360  1 O  px                 5      0.285905  1 O  px         
    46      0.272525  3 H  s                 11      0.197165  1 O  px         
    45      0.186598  3 H  s          

 Vector    5  Occ=2.000000D+00  E=-5.005472D-01
              MO Center= -5.0D-02,  5.6D-01, -1.7D-07, r^2= 1.2D+00
   Bfn.  Coefficient  Atom+Function         Bfn.  Coefficient  Atom+Function  
  ----- ------------  ---------------      ----- ------------  ---------------
     9      0.322560  1 O  py                32      0.290691  2 H  s          
     6      0.254233  1 O  py                12      0.222061  1 O  py         
    33      0.201265  2 H  s          

 Vector    6  Occ=0.000000D+00  E=-7.553410D-02
              MO Center= -6.5D-02,  8.1D-01, -4.6D-07, r^2= 1.2D+00
   Bfn.  Coefficient  Atom+Function         Bfn.  Coefficient  Atom+Function  
  ----- ------------  ---------------      ----- ------------  ---------------
    32      0.475226  2 H  s                  9     -0.422015  1 O  py         
     6     -0.338812  1 O  py                33      0.236135  2 H  s          
    31      0.216264  2 H  s          

 Vector    7  Occ=0.000000D+00  E=-2.626151D-02
              MO Center=  5.2D-01, -3.2D-01, -3.6D-06, r^2= 6.4D-01
   Bfn.  Coefficient  Atom+Function         Bfn.  Coefficient  Atom+Function  
  ----- ------------  ---------------      ----- ------------  ---------------
    46      0.667877  3 H  s                  5     -0.497480  1 O  px         
     8     -0.433717  1 O  px                45      0.316592  3 H  s          
     2     -0.285344  1 O  s                  4     -0.230156  1 O  s          

 Vector    8  Occ=0.000000D+00  E=-1.426943D-02
              MO Center=  1.4D-02, -1.3D-01, -8.0D-05, r^2= 1.3D+00
   Bfn.  Coefficient  Atom+Function         Bfn.  Coefficient  Atom+Function  
  ----- ------------  ---------------      ----- ------------  ---------------
    13      0.845235  1 O  pz                 7     -0.615096  1 O  pz         
    10     -0.325720  1 O  pz         

 Vector    9  Occ=0.000000D+00  E= 3.125943D-01
              MO Center=  1.1D+00, -7.0D-01,  2.3D-05, r^2= 3.6D+00
   Bfn.  Coefficient  Atom+Function         Bfn.  Coefficient  Atom+Function  
  ----- ------------  ---------------      ----- ------------  ---------------
    47      2.026432  3 H  s                  4     -1.393613  1 O  s          
    11     -0.681263  1 O  px                51     -0.486509  3 H  px         
    52      0.186738  3 H  py                12      0.161785  1 O  py         
    46     -0.160211  3 H  s          

 Vector   10  Occ=0.000000D+00  E= 3.557329D-01
              MO Center= -1.4D-01,  1.8D+00,  7.9D-07, r^2= 3.4D+00
   Bfn.  Coefficient  Atom+Function         Bfn.  Coefficient  Atom+Function  
  ----- ------------  ---------------      ----- ------------  ---------------
    33      1.894613  2 H  s                 32     -1.168996  2 H  s          
    47     -0.620756  3 H  s                 12     -0.362613  1 O  py         
     4     -0.314339  1 O  s                 46      0.264133  3 H  s          

 Vector   11  Occ=0.000000D+00  E= 6.065880D-01
              MO Center= -3.2D-01,  5.1D-01, -3.1D-06, r^2= 2.1D+00
   Bfn.  Coefficient  Atom+Function         Bfn.  Coefficient  Atom+Function  
  ----- ------------  ---------------      ----- ------------  ---------------
    46      2.402479  3 H  s                  4     -1.914637  1 O  s          
    11     -1.873393  1 O  px                51     -0.706786  3 H  px         
    12      0.536648  1 O  py                37     -0.407008  2 H  px         
    47      0.291768  3 H  s                 33     -0.210928  2 H  s          
    32      0.161698  2 H  s                  9      0.152354  1 O  py         

 Vector   12  Occ=0.000000D+00  E= 7.814028D-01
              MO Center=  1.5D-01, -3.1D-01, -2.0D-05, r^2= 2.3D+00
   Bfn.  Coefficient  Atom+Function         Bfn.  Coefficient  Atom+Function  
  ----- ------------  ---------------      ----- ------------  ---------------
    46      1.555344  3 H  s                  4     -1.372239  1 O  s          
    12      1.297134  1 O  py                11     -1.166792  1 O  px         
    52      0.707741  3 H  py                 9     -0.493365  1 O  py         
    47      0.492723  3 H  s                 51     -0.388507  3 H  px         
    33     -0.364514  2 H  s                 37      0.319217  2 H  px         

 Vector   13  Occ=0.000000D+00  E= 7.836879D-01
              MO Center=  1.3D-01,  9.6D-01,  2.3D-05, r^2= 1.9D+00
   Bfn.  Coefficient  Atom+Function         Bfn.  Coefficient  Atom+Function  
  ----- ------------  ---------------      ----- ------------  ---------------
    39      0.888825  2 H  pz                53     -0.589582  3 H  pz         

 Vector   14  Occ=0.000000D+00  E= 8.627870D-01
              MO Center= -3.4D-01,  1.1D-01, -4.8D-06, r^2= 2.5D+00
   Bfn.  Coefficient  Atom+Function         Bfn.  Coefficient  Atom+Function  
  ----- ------------  ---------------      ----- ------------  ---------------
    11      1.159576  1 O  px                46     -1.033261  3 H  s          
    12      1.000515  1 O  py                37     -0.742996  2 H  px         
    52     -0.581724  3 H  py                32     -0.503820  2 H  s          
     4      0.411013  1 O  s                  9     -0.385338  1 O  py         
    47      0.354097  3 H  s                  2      0.301324  1 O  s          

 Vector   15  Occ=0.000000D+00  E= 9.513585D-01
              MO Center=  3.0D-01,  1.6D-02, -1.6D-05, r^2= 2.3D+00
   Bfn.  Coefficient  Atom+Function         Bfn.  Coefficient  Atom+Function  
  ----- ------------  ---------------      ----- ------------  ---------------
    53      1.132128  3 H  pz                13     -0.990025  1 O  pz         
    39      0.611823  2 H  pz         


 center of mass
 --------------
 x =  -0.07599894 y =  -0.10539790 z =   0.00000000

 moments of inertia (a.u.)
 ------------------
           9.425293255233           1.360851927118           0.000000000000
           1.360851927118           2.833002082974           0.000000000000
           0.000000000000           0.000000000000          12.258295338207

  Mulliken analysis of the total density
  --------------------------------------

    Atom       Charge   Shell Charges
 -----------   ------   -------------------------------------------------------
    1 O    8     8.42   1.95  1.04  0.24  0.64  1.20  1.99  1.33  0.00  0.01  0.00
    2 H    1     0.83   0.14  0.42  0.24  0.00  0.02  0.00
    3 H    1     0.75   0.25  0.38  0.04  0.02  0.06  0.01

       Multipole analysis of the density wrt the origin
       ------------------------------------------------

     L   x y z        total         open         nuclear
     -   - - -        -----         ----         -------
     0   0 0 0     -0.000000      0.000000     10.000000

     1   1 0 0      0.558448      0.000000     -0.000000
     1   0 1 0      0.351719      0.000000     -0.000000
     1   0 0 1      0.000003      0.000000      0.000000

     2   2 0 0     -4.454864      0.000000      2.679864
     2   1 1 0     -0.846204      0.000000     -1.532158
     2   1 0 1     -0.000003      0.000000      0.000000
     2   0 2 0     -2.843170      0.000000      9.099886
     2   0 1 1     -0.000002      0.000000      0.000000
     2   0 0 2     -5.880544      0.000000      0.000000


 Parallel integral file used      16 records with       0 large values

 ------------------------------------
     Number of active orbitals      8
     Number of active alpha electrons      5
     Number of active beta electrons       5
 ------------------------------------
                   NWChem Extensible Many-Electron Theory Module
                   ---------------------------------------------

              ======================================================
                   This portion of the program was automatically
                  generated by a Tensor Contraction Engine (TCE).
                  The development of this portion of the program
                 and TCE was supported by US Department of Energy,
                Office of Science, Office of Basic Energy Science.
                      TCE is a product of Battelle and PNNL.
              Please cite: S.Hirata, J.Phys.Chem.A 107, 9887 (2003).
              ======================================================

                                        H2O


            General Information
            -------------------
      Number of processors :     1
         Wavefunction type : Restricted Hartree-Fock
          No. of electrons :    10
           Alpha electrons :     5
            Beta electrons :     5
           No. of orbitals :   116
            Alpha orbitals :    58
             Beta orbitals :    58
        Alpha frozen cores :     0
         Beta frozen cores :     0
     Alpha frozen virtuals :    50
      Beta frozen virtuals :    50
         Spin multiplicity : singlet 
    Number of AO functions :    58
       Number of AO shells :    22
        Use of symmetry is : off
      Symmetry adaption is : off
         Schwarz screening : 0.10D-09

          Correlation Information
          -----------------------
          Calculation type : Coupled-cluster singles & doubles                           
   Perturbative correction : none                                                        
            Max iterations :      300
        Residual threshold : 0.10D-06
     T(0) DIIS level shift : 0.00D+00
     L(0) DIIS level shift : 0.00D+00
     T(1) DIIS level shift : 0.00D+00
     L(1) DIIS level shift : 0.00D+00
     T(R) DIIS level shift : 0.00D+00
     T(I) DIIS level shift : 0.00D+00
   CC-T/L Amplitude update :  5-th order DIIS
                I/O scheme : Global Array Library
        L-threshold :  0.10D-06
        EOM-threshold :  0.10D-06
 no EOMCCSD initial starts read in
 TCE RESTART OPTIONS
 READ_INT:   F
 WRITE_INT:  F
 READ_TA:    F
 WRITE_TA:   F
 READ_XA:    F
 WRITE_XA:   F
 READ_IN3:   F
 WRITE_IN3:  F
 SLICE:      F
 D4D5:       F
 quantumc:   T
 qrotation:  F
 pwtce:      F
 qducc:      F
 nacto:                         0
 nrotv:                         0
 nrot:                          0

            Memory Information
            ------------------
          Available GA space size is    1610609372 doubles
          Available MA space size is    1610609780 doubles

 Maximum block size supplied by input
 Maximum block size         1 doubles

 tile_dim =      1

 Block   Spin    Irrep     Size     Offset   Alpha
 -------------------------------------------------
   1    alpha     a      1 doubles       0       1
   2    alpha     a      1 doubles       1       2
   3    alpha     a      1 doubles       2       3
   4    alpha     a      1 doubles       3       4
   5    alpha     a      1 doubles       4       5
   6    beta      a      1 doubles       5       1
   7    beta      a      1 doubles       6       2
   8    beta      a      1 doubles       7       3
   9    beta      a      1 doubles       8       4
  10    beta      a      1 doubles       9       5
  11    alpha     a      1 doubles      10      11
  12    alpha     a      1 doubles      11      12
  13    alpha     a      1 doubles      12      13
  14    beta      a      1 doubles      13      11
  15    beta      a      1 doubles      14      12
  16    beta      a      1 doubles      15      13

 Global array virtual files algorithm will be used

 Parallel file system coherency ......... OK

 Integral file          = ./H2O.aoints.0
 Record size in doubles =  65536        No. of integs per rec  =  43688
 Max. records in memory =     49        Max. records in file   = 248787
 No. of bits per label  =      8        No. of bits per value  =     64


 #quartets = 3.213D+04 #integrals = 6.608D+05 #direct =  0.0% #cached =100.0%


 Fock matrix recomputed
 1-e file size   =               64
 1-e file name   = ./H2O.f1
 Cpu & wall time / sec            0.1            0.1
 4-electron integrals stored in orbital form

 v2    file size   =              666
 4-index algorithm nr.  13 is used
 imaxsize =       30
 imaxsize ichop =        0
 begin_one_electron_integrals
    1    1       -32.7923517946
    2    1        -0.6398938356
    3    1        -0.0000294777
    4    1         0.1238939996
    5    1        -0.0018753029
    6    1        -0.1194205347
    7    1        -0.2054365076
    8    1         0.0000534926
    1    2        -0.6398938356
    2    2        -7.7019367823
    3    2         0.0000663560
    4    2        -0.2632336192
    5    2         0.0540828546
    6    2         0.2743069170
    7    2         0.1124873129
    8    2         0.0000220517
    1    3        -0.0000294777
    2    3         0.0000663560
    3    3        -6.9020756483
    4    3         0.0000249358
    5    3        -0.0000031082
    6    3        -0.0000249126
    7    3        -0.0000276728
    8    3         2.1473433295
    1    4         0.1238939996
    2    4        -0.2632336192
    3    4         0.0000249358
    4    4        -6.6871722654
    5    4        -0.0726547736
    6    4         0.0127148140
    7    4         1.9776122671
    8    4         0.0000462518
    1    5        -0.0018753029
    2    5         0.0540828546
    3    5        -0.0000031082
    4    5        -0.0726547736
    5    5        -5.5183196846
    6    5         2.1051562806
    7    5        -0.0195012375
    8    5         0.0000425537
    1    6        -0.1194205347
    2    6         0.2743069170
    3    6        -0.0000249126
    4    6         0.0127148140
    5    6         2.1051562806
    6    6        -5.3455801044
    7    6         0.0330235900
    8    6         0.0000070873
    1    7        -0.2054365076
    2    7         0.1124873129
    3    7        -0.0000276728
    4    7         1.9776122671
    5    7        -0.0195012375
    6    7         0.0330235900
    7    7        -5.9690711997
    8    7         0.0000006363
    1    8         0.0000534926
    2    8         0.0000220517
    3    8         2.1473433295
    4    8         0.0000462518
    5    8         0.0000425537
    6    8         0.0000070873
    7    8         0.0000006363
    8    8        -5.2611381156
 end_one_electron_integrals
 begin_two_electron_integrals
    1    1    1    1        4.8126116961
    2    1    1    1       -0.2765086475
    2    1    2    1        0.0369041777
    3    1    1    1        0.0000372499
    3    1    2    1       -0.0000017643
    3    1    3    1        0.0286111745
    3    1    2    2        0.0000055006
    4    1    1    1       -0.0881037231
    4    1    2    1        0.0033279450
    4    1    3    1       -0.0000006206
    4    1    4    1        0.0215028333
    4    1    2    2       -0.0144631486
    4    1    3    2        0.0000010155
    4    1    3    3       -0.0021957810
    5    1    1    1       -0.0020270606
    5    1    2    1       -0.0016586336
    5    1    3    1        0.0000001218
    5    1    4    1        0.0010581762
    5    1    5    1        0.0152185216
    5    1    2    2       -0.0032657433
    5    1    3    2        0.0000003286
    5    1    4    2        0.0004620378
    5    1    3    3        0.0007377332
    5    1    4    3       -0.0000000457
    5    1    4    4        0.0007713860
    6    1    1    1        0.0857683502
    6    1    2    1       -0.0067864542
    6    1    3    1        0.0000009150
    6    1    4    1       -0.0020719253
    6    1    5    1       -0.0190229667
    6    1    6    1        0.0260866454
    6    1    2    2        0.0079611504
    6    1    3    2       -0.0000003646
    6    1    4    2        0.0009332288
    6    1    5    2       -0.0190187427
    6    1    3    3        0.0033843112
    6    1    4    3       -0.0000000824
    6    1    5    3        0.0000017046
    6    1    4    4        0.0034854048
    6    1    5    4       -0.0034561732
    6    1    5    5       -0.0017060939
    7    1    1    1        0.1673309208
    7    1    2    1       -0.0092338608
    7    1    3    1        0.0000017502
    7    1    4    1       -0.0335157029
    7    1    5    1       -0.0003228895
    7    1    6    1        0.0025139635
    7    1    7    1        0.0529221848
    7    1    2    2        0.0225478828
    7    1    3    2       -0.0000013458
    7    1    4    2       -0.0265199059
    7    1    5    2        0.0001485665
    7    1    6    2       -0.0041093581
    7    1    3    3        0.0034415139
    7    1    4    3        0.0000024212
    7    1    5    3       -0.0000000125
    7    1    6    3        0.0000003279
    7    1    4    4       -0.0152555963
    7    1    5    4       -0.0000855210
    7    1    6    4        0.0032590458
    7    1    5    5        0.0027315972
    7    1    6    5       -0.0017759552
    7    1    6    6        0.0042370434
    8    1    1    1       -0.0000435326
    8    1    2    1        0.0000018378
    8    1    3    1       -0.0390624915
    8    1    4    1        0.0000001718
    8    1    5    1       -0.0000005219
    8    1    6    1       -0.0000006513
    8    1    7    1       -0.0000013017
    8    1    8    1        0.0536249395
    8    1    2    2       -0.0000070466
    8    1    3    2       -0.0374461006
    8    1    4    2       -0.0000017858
    8    1    5    2       -0.0000005615
    8    1    6    2        0.0000011312
    8    1    7    2        0.0000018621
    8    1    3    3        0.0000055982
    8    1    4    3       -0.0074092812
    8    1    5    3       -0.0009256985
    8    1    6    3        0.0057422501
    8    1    7    3        0.0099749019
    8    1    4    4       -0.0000015829
    8    1    5    4       -0.0000001571
    8    1    6    4        0.0000002984
    8    1    7    4        0.0000012734
    8    1    5    5       -0.0000006875
    8    1    6    5        0.0000007851
    8    1    7    5        0.0000001922
    8    1    6    6       -0.0000011094
    8    1    7    6       -0.0000003919
    8    1    7    7       -0.0000021810
    2    2    1    1        1.0850804828
    2    2    2    1        0.0048192715
    2    2    2    2        0.8274933122
    3    2    1    1       -0.0000045546
    3    2    2    1        0.0000018351
    3    2    3    1        0.0264183551
    3    2    2    2        0.0000175413
    3    2    3    2        0.1408729794
    4    2    1    1       -0.0044641529
    4    2    2    1       -0.0046079628
    4    2    3    1        0.0000008361
    4    2    4    1        0.0170601502
    4    2    2    2       -0.0553371845
    4    2    3    2        0.0000078439
    4    2    4    2        0.0908623004
    4    2    3    3        0.0104840823
    5    2    1    1       -0.0348856093
    5    2    2    1       -0.0016123958
    5    2    3    1        0.0000001084
    5    2    4    1        0.0008410849
    5    2    5    1        0.0142902781
    5    2    2    2       -0.0363997779
    5    2    3    2        0.0000021851
    5    2    4    2       -0.0015393931
    5    2    5    2        0.0886337113
    5    2    3    3       -0.0135041249
    5    2    4    3        0.0000002949
    5    2    4    4       -0.0168241561
    6    2    1    1       -0.0582084903
    6    2    2    1        0.0014394233
    6    2    3    1       -0.0000006085
    6    2    4    1        0.0017013917
    6    2    5    1       -0.0150619801
    6    2    6    1        0.0188645804
    6    2    2    2       -0.0169832795
    6    2    3    2       -0.0000025883
    6    2    4    2        0.0088475898
    6    2    5    2       -0.0723053051
    6    2    6    2        0.0710583768
    6    2    3    3       -0.0298555877
    6    2    4    3       -0.0000010300
    6    2    5    3        0.0000047244
    6    2    4    4       -0.0166733156
    6    2    5    4       -0.0115991945
    6    2    5    5       -0.0282174219
    7    2    1    1       -0.0253817296
    7    2    2    1        0.0052800059
    7    2    3    1       -0.0000010782
    7    2    4    1       -0.0163024839
    7    2    5    1        0.0008098461
    7    2    6    1       -0.0027622362
    7    2    7    1        0.0241660102
    7    2    2    2        0.0267681456
    7    2    3    2       -0.0000056886
    7    2    4    2       -0.0588749744
    7    2    5    2        0.0065394208
    7    2    6    2       -0.0113576028
    7    2    7    2        0.0513450566
    7    2    3    3       -0.0172882720
    7    2    4    3        0.0000036533
    7    2    5    3       -0.0000005960
    7    2    6    3        0.0000012305
    7    2    4    4       -0.0346901534
    7    2    5    4        0.0000370661
    7    2    6    4        0.0062463557
    7    2    5    5       -0.0078356288
    7    2    6    5        0.0116107033
    7    2    6    6       -0.0082858430
    8    2    1    1       -0.0000034537
    8    2    2    1       -0.0000016317
    8    2    3    1       -0.0204828045
    8    2    4    1       -0.0000009172
    8    2    5    1       -0.0000004364
    8    2    6    1        0.0000004784
    8    2    7    1        0.0000010752
    8    2    8    1        0.0263094630
    8    2    2    2       -0.0000106762
    8    2    3    2       -0.0527432892
    8    2    4    2       -0.0000017187
    8    2    5    2       -0.0000009303
    8    2    6    2        0.0000017835
    8    2    7    2        0.0000028324
    8    2    8    2        0.0434247656
    8    2    3    3        0.0000063783
    8    2    4    3       -0.0048527363
    8    2    5    3        0.0005298898
    8    2    6    3        0.0086849467
    8    2    7    3        0.0117477841
    8    2    4    4       -0.0000017327
    8    2    5    4       -0.0000000239
    8    2    6    4        0.0000004336
    8    2    7    4        0.0000018175
    8    2    5    5       -0.0000015240
    8    2    6    5        0.0000008687
    8    2    7    5        0.0000002724
    8    2    6    6       -0.0000015611
    8    2    7    6       -0.0000004916
    8    2    7    7       -0.0000009736
    3    3    1    1        1.0402644779
    3    3    2    1        0.0025700468
    3    3    3    1       -0.0000038312
    3    3    2    2        0.7352409555
    3    3    3    2       -0.0000233128
    3    3    3    3        0.7517013466
    4    3    1    1       -0.0000002218
    4    3    2    1        0.0000008318
    4    3    3    1        0.0053876242
    4    3    4    1       -0.0000015762
    4    3    2    2        0.0000088232
    4    3    3    2        0.0225697795
    4    3    4    2       -0.0000048197
    4    3    3    3       -0.0000051042
    4    3    4    3        0.0360506457
    5    3    1    1        0.0000027249
    5    3    2    1        0.0000001794
    5    3    3    1        0.0005716474
    5    3    4    1       -0.0000000751
    5    3    5    1       -0.0000013055
    5    3    2    2        0.0000034914
    5    3    3    2        0.0026128053
    5    3    4    2        0.0000002977
    5    3    5    2       -0.0000057967
    5    3    3    3        0.0000005295
    5    3    4    3        0.0016736201
    5    3    5    3        0.0229968577
    5    3    4    4        0.0000013599
    6    3    1    1        0.0000055824
    6    3    2    1       -0.0000004881
    6    3    3    1       -0.0042793919
    6    3    4    1       -0.0000001509
    6    3    5    1        0.0000013656
    6    3    6    1       -0.0000016966
    6    3    2    2       -0.0000012673
    6    3    3    2       -0.0153395280
    6    3    4    2       -0.0000010323
    6    3    5    2        0.0000047583
    6    3    6    2       -0.0000044690
    6    3    3    3        0.0000053719
    6    3    4    3       -0.0026569137
    6    3    5    3       -0.0191894284
    6    3    6    3        0.0211921018
    6    3    4    4        0.0000014672
    6    3    5    4        0.0000010477
    6    3    5    5        0.0000025831
    7    3    1    1        0.0000071682
    7    3    2    1       -0.0000011705
    7    3    3    1       -0.0077377934
    7    3    4    1        0.0000015101
    7    3    5    1       -0.0000000706
    7    3    6    1        0.0000002889
    7    3    7    1       -0.0000023279
    7    3    2    2       -0.0000046786
    7    3    3    2       -0.0201907248
    7    3    4    2        0.0000038821
    7    3    5    2       -0.0000006674
    7    3    6    2        0.0000011784
    7    3    7    2       -0.0000029719
    7    3    3    3        0.0000067640
    7    3    4    3       -0.0199443471
    7    3    5    3        0.0000961184
    7    3    6    3        0.0024226814
    7    3    7    3        0.0245741413
    7    3    4    4        0.0000046508
    7    3    5    4        0.0000000459
    7    3    6    4       -0.0000006063
    7    3    5    5        0.0000015587
    7    3    6    5       -0.0000018941
    7    3    6    6        0.0000017742
    8    3    1    1       -0.5332701288
    8    3    2    1        0.0002356209
    8    3    3    1        0.0000025939
    8    3    4    1        0.0035895410
    8    3    5    1       -0.0005003404
    8    3    6    1       -0.0032481855
    8    3    7    1       -0.0062857752
    8    3    8    1       -0.0000035426
    8    3    2    2       -0.2180895348
    8    3    3    2        0.0000089379
    8    3    4    2        0.0057779146
    8    3    5    2        0.0086923466
    8    3    6    2        0.0175244795
    8    3    7    2        0.0078369822
    8    3    8    2       -0.0000054927
    8    3    3    3       -0.2127146468
    8    3    4    3        0.0000002593
    8    3    5    3       -0.0000009533
    8    3    6    3       -0.0000029978
    8    3    7    3       -0.0000039894
    8    3    8    3        0.1640527713
    8    3    4    4       -0.1465978755
    8    3    5    4       -0.0043810570
    8    3    6    4        0.0013455816
    8    3    7    4        0.1246496317
    8    3    5    5       -0.1148750475
    8    3    6    5        0.1056857871
    8    3    7    5       -0.0009144693
    8    3    6    6       -0.1327584982
    8    3    7    6        0.0032095845
    8    3    7    7       -0.1717795804
    4    4    1    1        0.9049349912
    4    4    2    1       -0.0001279107
    4    4    3    1        0.0000009087
    4    4    4    1        0.0093023701
    4    4    2    2        0.6351795287
    4    4    3    2        0.0000000147
    4    4    4    2        0.0801671938
    4    4    3    3        0.6324152905
    4    4    4    3       -0.0000071874
    4    4    4    4        0.7670422352
    5    4    1    1        0.0175232959
    5    4    2    1       -0.0002896155
    5    4    3    1        0.0000000551
    5    4    4    1        0.0002747822
    5    4    5    1        0.0028702721
    5    4    2    2        0.0044188919
    5    4    3    2        0.0000003176
    5    4    4    2       -0.0015459826
    5    4    5    2        0.0105530275
    5    4    3    3        0.0079401973
    5    4    4    3        0.0000001275
    5    4    5    3       -0.0000009405
    5    4    4    4        0.0047473495
    5    4    5    4        0.0214911534
    6    4    1    1       -0.0045031041
    6    4    2    1        0.0011848315
    6    4    3    1       -0.0000001166
    6    4    4    1       -0.0024793963
    6    4    5    1       -0.0032442011
    6    4    6    1        0.0039260983
    6    4    2    2        0.0086501632
    6    4    3    2       -0.0000008761
    6    4    4    2       -0.0053605267
    6    4    5    2       -0.0137441740
    6    4    6    2        0.0107581007
    6    4    3    3       -0.0011704785
    6    4    4    3        0.0000004634
    6    4    5    3        0.0000012294
    6    4    6    3       -0.0000009777
    6    4    4    4        0.0000157078
    6    4    5    4       -0.0181780295
    6    4    6    4        0.0192362747
    6    4    5    5       -0.0097174518
    7    4    1    1       -0.4788708080
    7    4    2    1        0.0019354829
    7    4    3    1       -0.0000009980
    7    4    4    1       -0.0042820300
    7    4    5    1       -0.0006937529
    7    4    6    1       -0.0028272226
    7    4    7    1        0.0035864062
    7    4    2    2       -0.2123449913
    7    4    3    2        0.0000028972
    7    4    4    2        0.0117832271
    7    4    5    2        0.0035997330
    7    4    6    2        0.0175256674
    7    4    7    2        0.0180624172
    7    4    3    3       -0.1848118104
    7    4    4    3       -0.0000007239
    7    4    5    3       -0.0000002090
    7    4    6    3       -0.0000016618
    7    4    7    3       -0.0000028469
    7    4    4    4       -0.1064093493
    7    4    5    4       -0.0071738091
    7    4    6    4        0.0071487304
    7    4    7    4        0.2099166421
    7    4    5    5       -0.1205330822
    7    4    6    5        0.0947948438
    7    4    6    6       -0.1363701039
    8    4    1    1       -0.0000098481
    8    4    2    1       -0.0000005914
    8    4    3    1       -0.0028188054
    8    4    4    1        0.0000007508
    8    4    5    1       -0.0000000076
    8    4    6    1        0.0000000087
    8    4    7    1       -0.0000011279
    8    4    8    1        0.0031722806
    8    4    2    2       -0.0000047624
    8    4    3    2        0.0020997064
    8    4    4    2        0.0000001653
    8    4    5    2        0.0000004053
    8    4    6    2        0.0000004384
    8    4    7    2       -0.0000001218
    8    4    8    2        0.0037696836
    8    4    3    3       -0.0000043891
    8    4    4    3       -0.0033042491
    8    4    5    3       -0.0002921487
    8    4    6    3        0.0009620634
    8    4    7    3        0.0161483716
    8    4    8    3        0.0000015066
    8    4    4    4       -0.0000048835
    8    4    5    4       -0.0000001138
    8    4    6    4       -0.0000001984
    8    4    7    4        0.0000011676
    8    4    8    4        0.0172094305
    8    4    5    5       -0.0000023515
    8    4    6    5        0.0000024611
    8    4    7    5        0.0000002047
    8    4    6    6       -0.0000025806
    8    4    7    6        0.0000000221
    8    4    7    7       -0.0000046318
    5    5    1    1        0.7344783827
    5    5    2    1        0.0015097418
    5    5    3    1        0.0000005498
    5    5    4    1       -0.0014858324
    5    5    5    1        0.0021669161
    5    5    2    2        0.5629463708
    5    5    3    2       -0.0000029636
    5    5    4    2        0.0001769660
    5    5    5    2        0.0286618849
    5    5    3    3        0.5273238242
    5    5    4    3       -0.0000000795
    5    5    5    3       -0.0000026394
    5    5    4    4        0.4896766825
    5    5    5    4        0.0074244542
    5    5    5    5        0.5495455194
    6    5    1    1       -0.4312444966
    6    5    2    1       -0.0010640279
    6    5    3    1       -0.0000006096
    6    5    4    1        0.0011508547
    6    5    5    1       -0.0024138386
    6    5    6    1       -0.0008628590
    6    5    2    2       -0.2375229251
    6    5    3    2        0.0000021933
    6    5    4    2       -0.0097066074
    6    5    5    2        0.0260472064
    6    5    6    2        0.0145834410
    6    5    3    3       -0.2125532605
    6    5    4    3        0.0000009622
    6    5    5    3       -0.0000021836
    6    5    6    3       -0.0000012707
    6    5    4    4       -0.1936345082
    6    5    5    4       -0.0067119968
    6    5    6    4       -0.0041982463
    6    5    5    5       -0.0735136583
    6    5    6    5        0.2157102787
    7    5    1    1        0.0031540282
    7    5    2    1        0.0006838948
    7    5    3    1       -0.0000000590
    7    5    4    1       -0.0006343707
    7    5    5    1       -0.0043017307
    7    5    6    1        0.0053623430
    7    5    7    1        0.0006524782
    7    5    2    2        0.0076281374
    7    5    3    2       -0.0000005094
    7    5    4    2       -0.0009919468
    7    5    5    2       -0.0130160558
    7    5    6    2        0.0121603166
    7    5    7    2       -0.0010674460
    7    5    3    3        0.0023707764
    7    5    4    3        0.0000000954
    7    5    5    3        0.0000011710
    7    5    6    3       -0.0000011419
    7    5    7    3        0.0000000921
    7    5    4    4       -0.0024367753
    7    5    5    4       -0.0108983930
    7    5    6    4        0.0130380653
    7    5    7    4       -0.0021568361
    7    5    5    5       -0.0019588330
    7    5    6    5       -0.0026517660
    7    5    7    5        0.0143565878
    7    5    6    6       -0.0043812242
    8    5    1    1       -0.0000090363
    8    5    2    1       -0.0000001250
    8    5    3    1       -0.0001603473
    8    5    4    1        0.0000001025
    8    5    5    1        0.0000007060
    8    5    6    1       -0.0000009002
    8    5    7    1       -0.0000001147
    8    5    8    1        0.0000098697
    8    5    2    2       -0.0000040004
    8    5    3    2        0.0044843128
    8    5    4    2        0.0000004491
    8    5    5    2        0.0000002473
    8    5    6    2       -0.0000001525
    8    5    7    2        0.0000000694
    8    5    8    2        0.0004705099
    8    5    3    3       -0.0000046813
    8    5    4    3        0.0001814637
    8    5    5    3       -0.0038516864
    8    5    6    3        0.0087810566
    8    5    7    3        0.0000965088
    8    5    8    3        0.0000020415
    8    5    4    4       -0.0000028542
    8    5    5    4       -0.0000001066
    8    5    6    4        0.0000001528
    8    5    7    4        0.0000022653
    8    5    8    4        0.0009800824
    8    5    5    5       -0.0000035267
    8    5    6    5        0.0000014388
    8    5    7    5       -0.0000002894
    8    5    8    5        0.0123986755
    8    5    6    6       -0.0000028875
    8    5    7    6        0.0000003762
    8    5    7    7       -0.0000031004
    6    6    1    1        0.7991759462
    6    6    2    1        0.0005377890
    6    6    3    1        0.0000008294
    6    6    4    1       -0.0021476066
    6    6    5    1        0.0053975257
    6    6    6    1       -0.0049642518
    6    6    2    2        0.5569363260
    6    6    3    2       -0.0000028198
    6    6    4    2       -0.0007169573
    6    6    5    2        0.0358840889
    6    6    6    2       -0.0371567605
    6    6    3    3        0.5243370417
    6    6    4    3       -0.0000000369
    6    6    5    3       -0.0000032639
    6    6    6    3        0.0000034141
    6    6    4    4        0.4813612300
    6    6    5    4        0.0062683095
    6    6    6    4       -0.0116712506
    6    6    5    5        0.5598470693
    6    6    6    5       -0.0514540195
    6    6    6    6        0.5997272378
    7    6    1    1       -0.0087997751
    7    6    2    1       -0.0018060639
    7    6    3    1        0.0000001276
    7    6    4    1        0.0033696860
    7    6    5    1        0.0051001013
    7    6    6    1       -0.0060583121
    7    6    7    1       -0.0047410993
    7    6    2    2       -0.0184991140
    7    6    3    2        0.0000014017
    7    6    4    2        0.0127142737
    7    6    5    2        0.0146497866
    7    6    6    2       -0.0132876049
    7    6    7    2       -0.0071736654
    7    6    3    3       -0.0025870749
    7    6    4    3       -0.0000011621
    7    6    5    3       -0.0000013775
    7    6    6    3        0.0000012745
    7    6    7    3        0.0000007098
    7    6    4    4        0.0102523150
    7    6    5    4        0.0150041320
    7    6    6    4       -0.0162927265
    7    6    7    4        0.0064836891
    7    6    5    5       -0.0024820773
    7    6    6    5       -0.0020457698
    7    6    7    5       -0.0152559562
    7    6    6    6       -0.0029124334
    7    6    7    6        0.0200801097
    8    6    1    1       -0.0000005210
    8    6    2    1        0.0000004623
    8    6    3    1        0.0041201621
    8    6    4    1        0.0000001457
    8    6    5    1       -0.0000008808
    8    6    6    1        0.0000010777
    8    6    7    1       -0.0000002679
    8    6    8    1       -0.0057353092
    8    6    2    2        0.0000021460
    8    6    3    2        0.0157263599
    8    6    4    2        0.0000007351
    8    6    5    2       -0.0000009396
    8    6    6    2        0.0000011539
    8    6    7    2       -0.0000008004
    8    6    8    2       -0.0059705961
    8    6    3    3       -0.0000038575
    8    6    4    3        0.0031306940
    8    6    5    3        0.0125241508
    8    6    6    3       -0.0132352337
    8    6    7    3       -0.0017810564
    8    6    8    3        0.0000009508
    8    6    4    4       -0.0000005451
    8    6    5    4        0.0000000650
    8    6    6    4       -0.0000000642
    8    6    7    4        0.0000000051
    8    6    8    4        0.0001939668
    8    6    5    5        0.0000000555
    8    6    6    5        0.0000011713
    8    6    7    5        0.0000003579
    8    6    8    5       -0.0063208151
    8    6    6    6        0.0000002006
    8    6    7    6       -0.0000003414
    8    6    8    6        0.0141275006
    8    6    7    7       -0.0000005407
    7    7    1    1        1.0518970003
    7    7    2    1       -0.0044143428
    7    7    3    1        0.0000014120
    7    7    4    1        0.0094959472
    7    7    5    1        0.0008468166
    7    7    6    1        0.0055414425
    7    7    7    1       -0.0145100098
    7    7    2    2        0.6283944952
    7    7    3    2       -0.0000008903
    7    7    4    2        0.0711967464
    7    7    5    2       -0.0177132762
    7    7    6    2       -0.0186808173
    7    7    7    2       -0.0344733810
    7    7    3    3        0.6295670804
    7    7    4    3       -0.0000070865
    7    7    5    3        0.0000014027
    7    7    6    3        0.0000018209
    7    7    7    3        0.0000053727
    7    7    4    4        0.7470004129
    7    7    5    4        0.0040644315
    7    7    6    4        0.0019530842
    7    7    7    4       -0.1083310987
    7    7    5    5        0.4814946557
    7    7    6    5       -0.2019143559
    7    7    7    5       -0.0021015674
    7    7    6    6        0.4821402917
    7    7    7    6        0.0100780167
    7    7    7    7        0.7845269816
    8    7    1    1        0.0000002900
    8    7    2    1        0.0000010793
    8    7    3    1        0.0076770117
    8    7    4    1       -0.0000011648
    8    7    5    1        0.0000001298
    8    7    6    1       -0.0000002817
    8    7    7    1        0.0000017855
    8    7    8    1       -0.0103880053
    8    7    2    2        0.0000065024
    8    7    3    2        0.0251440512
    8    7    4    2       -0.0000011956
    8    7    5    2        0.0000005617
    8    7    6    2       -0.0000010846
    8    7    7    2        0.0000016895
    8    7    8    2       -0.0077702489
    8    7    3    3       -0.0000056955
    8    7    4    3        0.0276193143
    8    7    5    3        0.0009880321
    8    7    6    3       -0.0022705587
    8    7    7    3       -0.0171100571
    8    7    8    3        0.0000011430
    8    7    4    4       -0.0000019262
    8    7    5    4        0.0000004271
    8    7    6    4        0.0000000149
    8    7    7    4       -0.0000000678
    8    7    8    4       -0.0040061264
    8    7    5    5       -0.0000000903
    8    7    6    5        0.0000002901
    8    7    7    5       -0.0000002005
    8    7    8    5        0.0008308610
    8    7    6    6        0.0000000425
    8    7    7    6       -0.0000002796
    8    7    8    6        0.0034562229
    8    7    7    7       -0.0000021795
    8    7    8    7        0.0296390110
    8    8    1    1        1.0175201318
    8    8    2    1       -0.0022906234
    8    8    3    1       -0.0000031733
    8    8    4    1       -0.0040105245
    8    8    5    1        0.0009134699
    8    8    6    1        0.0041440321
    8    8    7    1        0.0065362585
    8    8    8    1        0.0000047863
    8    8    2    2        0.6259298826
    8    8    3    2       -0.0000176801
    8    8    4    2        0.0094096131
    8    8    5    2       -0.0095408584
    8    8    6    2       -0.0243154631
    8    8    7    2       -0.0120965496
    8    8    8    2        0.0000051145
    8    8    3    3        0.6430154495
    8    8    4    3       -0.0000035000
    8    8    5    3        0.0000006502
    8    8    6    3        0.0000037906
    8    8    7    3        0.0000047782
    8    8    8    3       -0.1799553439
    8    8    4    4        0.5600712339
    8    8    5    4        0.0068027359
    8    8    6    4       -0.0008521442
    8    8    7    4       -0.1480667814
    8    8    8    4       -0.0000042284
    8    8    5    5        0.4702643765
    8    8    6    5       -0.1718842120
    8    8    7    5        0.0013318373
    8    8    8    5       -0.0000042122
    8    8    6    6        0.4720232517
    8    8    7    6       -0.0010948239
    8    8    8    6       -0.0000031526
    8    8    7    7        0.5750816110
    8    8    8    7       -0.0000042927
    8    8    8    8        0.5914695542
 end_two_electron_integrals
 enrep_tce =    7.2152743398543384     
  EHF(A)             =       -75.89616866
  EHF(total)         =       -75.89616866
  Shift (HFtot-HFA)  =         0.00000000
 Cpu & wall time / sec            1.0            1.1
 T1-number-of-tasks                   15

 t1 file size   =               15
 t1 file name   = ./H2O.t1
 t1 file handle =       -998
 T2-number-of-boxes                  315

 t2 file size   =              315
 t2 file name   = ./H2O.t2
 t2 file handle =       -996
CCSD iterations
 ---------------------------------------------------------
 Iter          Residuum       Correlation     Cpu    Wall 
 ---------------------------------------------------------
NEW TASK SCHEDULING
CCSD_T1_NTS --- OK
CCSD_T2_NTS --- OK
    1   0.6453197002886  -0.2493902873589     1.9     2.7
    2   0.9827800120373   0.0512868732312     2.0     2.7
    3   1.5254467735100  -0.4149587823223     2.1     2.7
    4   2.3533709224979   0.2900178287272     1.9     2.7
    5   3.6537954400899  -0.7790212997665     1.9     2.7
 MICROCYCLE DIIS UPDATE:                    5                    5
    6   0.0209944724646  -0.1340414574666     2.0     2.7
    7   0.0291969176415  -0.1337727942785     2.1     2.7
    8   0.0501773510001  -0.1347781581455     1.9     2.7
    9   0.0938320727258  -0.1346641278019     1.9     2.7
   10   0.1805088473374  -0.1338099539881     1.9     2.7
 MICROCYCLE DIIS UPDATE:                   10                    5
   11   0.0008767220735  -0.1347253530425     1.9     2.7
   12   0.0007349262880  -0.1346095530540     2.0     2.7
   13   0.0010068363656  -0.1346631418289     1.9     2.7
   14   0.0015841740765  -0.1345844924999     2.1     2.7
   15   0.0026019228924  -0.1346936784117     2.0     2.7
 MICROCYCLE DIIS UPDATE:                   15                    5
   16   0.0000849615085  -0.1346251691576     1.9     2.7
   17   0.0000815858750  -0.1346326962892     1.9     2.7
   18   0.0001388307068  -0.1346328158081     2.1     2.7
   19   0.0002622865390  -0.1346367548488     1.8     2.7
   20   0.0005044650829  -0.1346304372780     1.8     2.7
 MICROCYCLE DIIS UPDATE:                   20                    5
   21   0.0000055957763  -0.1346353003601     2.0     2.7
   22   0.0000047399757  -0.1346347366437     2.0     2.7
   23   0.0000065689985  -0.1346349066684     2.0     2.7
   24   0.0000105691546  -0.1346346400466     2.0     2.7
   25   0.0000176777204  -0.1346350078677     1.9     2.7
 MICROCYCLE DIIS UPDATE:                   25                    5
   26   0.0000006137376  -0.1346347522518     2.0     2.7
   27   0.0000006074926  -0.1346348182497     2.0     2.7
   28   0.0000010520123  -0.1346348061716     1.9     2.7
   29   0.0000019886601  -0.1346348562712     2.1     2.7
   30   0.0000038167196  -0.1346347757247     2.0     2.7
 MICROCYCLE DIIS UPDATE:                   30                    5
   31   0.0000000448567  -0.1346348330248     2.5     3.3
 -----------------------------------------------------------------
 Iterations converged
 CCSD correlation energy / hartree =        -0.134634833024849
 CCSD total energy / hartree       =       -76.030803495964321

 Singles contributions

 Doubles contributions
     6a   (alpha)     8a   (alpha) ---     3a   (alpha)     5a   (alpha)        0.0262067746
     6a   (alpha)     6a   (beta ) ---     2a   (alpha)     2a   (beta )       -0.0204937511
     6a   (alpha)     6a   (beta ) ---     5a   (alpha)     5a   (beta )       -0.2805392440
     6a   (alpha)     7a   (beta ) ---     5a   (alpha)     4a   (beta )       -0.0343864532
     6a   (alpha)     8a   (beta ) ---     5a   (alpha)     3a   (beta )       -0.0377379295
     7a   (alpha)     8a   (alpha) ---     3a   (alpha)     4a   (alpha)        0.0313101651
     7a   (alpha)     6a   (beta ) ---     4a   (alpha)     5a   (beta )       -0.0343864532
     7a   (alpha)     7a   (beta ) ---     4a   (alpha)     4a   (beta )       -0.0898362685
     7a   (alpha)     8a   (beta ) ---     4a   (alpha)     3a   (beta )       -0.0415136553
     8a   (alpha)     6a   (beta ) ---     3a   (alpha)     5a   (beta )       -0.0377379295
     8a   (alpha)     7a   (beta ) ---     3a   (alpha)     4a   (beta )       -0.0415136553
     8a   (alpha)     8a   (beta ) ---     3a   (alpha)     3a   (beta )       -0.0588156348
 Ground state specification:
 exp(T)|Ref>~(1+T)|Ref>
 ------- a(p)+/a(q) strings ----------

 singles norm

 doubles norm

 Reference string
  0.96282909227439983      :(1a)+ (2a)+ (3a)+ (4a)+ (5a)+ (1b)+ (2b)+ (3b)+ (4b)+ (5b)+ |0>

 Singles strings

 Doubles strings
 -0.27011134568924561      :(6a)+ (6b)+ (5b)  (5a)  (1a)+ (2a)+ (3a)+ (4a)+ (5a)+ (1b)+ (2b)+ (3b)+ (4b)+ (5b)+ |0>
 -------------------------------------

 Parallel integral file used      16 records with       0 large values


 Task  times  cpu:       63.2s     wall:       87.3s


                                NWChem Input Module
                                -------------------


 Summary of allocated global arrays
-----------------------------------
  No active global arrays


MA_summarize_allocated_blocks: starting scan ...
MA_summarize_allocated_blocks: scan completed: 0 heap blocks, 0 stack blocks
MA usage statistics:

	allocation statistics:
					      heap	     stack
					      ----	     -----
	current number of blocks	         0	         0
	maximum number of blocks	        18	        42
	current total bytes		         0	         0
	maximum total bytes		  25775928	  38234424
	maximum total K-bytes		     25776	     38235
	maximum total M-bytes		        26	        39


                                     CITATION
                                     --------
                Please cite the following reference when publishing
                           results obtained with NWChem:

          E. Apra, E. J. Bylaska, W. A. de Jong, N. Govind, K. Kowalski,
       T. P. Straatsma, M. Valiev, H. J. J. van Dam, Y. Alexeev, J. Anchell,
       V. Anisimov, F. W. Aquino, R. Atta-Fynn, J. Autschbach, N. P. Bauman,
     J. C. Becca, D. E. Bernholdt, K. Bhaskaran-Nair, S. Bogatko, P. Borowski,
         J. Boschen, J. Brabec, A. Bruner, E. Cauet, Y. Chen, G. N. Chuev,
      C. J. Cramer, J. Daily, M. J. O. Deegan, T. H. Dunning Jr., M. Dupuis,
   K. G. Dyall, G. I. Fann, S. A. Fischer, A. Fonari, H. Fruchtl, L. Gagliardi,
      J. Garza, N. Gawande, S. Ghosh, K. Glaesemann, A. W. Gotz, J. Hammond,
       V. Helms, E. D. Hermes, K. Hirao, S. Hirata, M. Jacquelin, L. Jensen,
   B. G. Johnson, H. Jonsson, R. A. Kendall, M. Klemm, R. Kobayashi, V. Konkov,
      S. Krishnamoorthy, M. Krishnan, Z. Lin, R. D. Lins, R. J. Littlefield,
      A. J. Logsdail, K. Lopata, W. Ma, A. V. Marenich, J. Martin del Campo,
   D. Mejia-Rodriguez, J. E. Moore, J. M. Mullin, T. Nakajima, D. R. Nascimento,
    J. A. Nichols, P. J. Nichols, J. Nieplocha, A. Otero-de-la-Roza, B. Palmer,
    A. Panyala, T. Pirojsirikul, B. Peng, R. Peverati, J. Pittner, L. Pollack,
   R. M. Richard, P. Sadayappan, G. C. Schatz, W. A. Shelton, D. W. Silverstein,
   D. M. A. Smith, T. A. Soares, D. Song, M. Swart, H. L. Taylor, G. S. Thomas,
            V. Tipparaju, D. G. Truhlar, K. Tsemekhman, T. Van Voorhis,
      A. Vazquez-Mayagoitia, P. Verma, O. Villa, A. Vishnu, K. D. Vogiatzis,
        D. Wang, J. H. Weare, M. J. Williamson, T. L. Windus, K. Wolinski,
        A. T. Wong, Q. Wu, C. Yang, Q. Yu, M. Zacharias, Z. Zhang, Y. Zhao,
                                and R. J. Harrison
                        "NWChem: Past, present, and future
                         J. Chem. Phys. 152, 184102 (2020)
                               doi:10.1063/5.0004997

                                      AUTHORS
                                      -------
  E. Apra, E. J. Bylaska, N. Govind, K. Kowalski, M. Valiev, D. Mejia-Rodriguez,
       A. Kunitsa, N. P. Bauman, A. Panyala, W. A. de Jong, T. P. Straatsma,
        H. J. J. van Dam, D. Wang, T. L. Windus, J. Hammond, J. Autschbach,
    K. Bhaskaran-Nair, J. Brabec, K. Lopata, S. A. Fischer, S. Krishnamoorthy,
     M. Jacquelin, W. Ma, M. Klemm, O. Villa, Y. Chen, V. Anisimov, F. Aquino,
    S. Hirata, M. T. Hackler, Eric Hermes, L. Jensen, J. E. Moore, J. C. Becca,
      V. Konjkov, T. Risthaus, M. Malagoli, A. Marenich, A. Otero-de-la-Roza,
        J. Mullin, P. Nichols, R. Peverati, J. Pittner, Y. Zhao, P.-D. Fan,
        A. Fonari, M. J. Williamson, R. J. Harrison, J. R. Rehr, M. Dupuis,
     D. Silverstein, D. M. A. Smith, J. Nieplocha, V. Tipparaju, M. Krishnan,
     B. E. Van Kuiken, A. Vazquez-Mayagoitia, M. Swart, Q. Wu, T. Van Voorhis,
     A. A. Auer, M. Nooijen, L. D. Crosby, E. Brown, G. Cisneros, G. I. Fann,
   H. Fruchtl, J. Garza, K. Hirao, R. A. Kendall, J. A. Nichols, K. Tsemekhman,
    K. Wolinski, J. Anchell, D. E. Bernholdt, P. Borowski, T. Clark, D. Clerc,
   H. Dachsel, M. J. O. Deegan, K. Dyall, D. Elwood, E. Glendening, M. Gutowski,
   A. C. Hess, J. Jaffe, B. G. Johnson, J. Ju, R. Kobayashi, R. Kutteh, Z. Lin,
   R. Littlefield, X. Long, B. Meng, T. Nakajima, S. Niu, L. Pollack, M. Rosing,
   K. Glaesemann, G. Sandrone, M. Stave, H. Taylor, G. Thomas, J. H. van Lenthe,
                               A. T. Wong, Z. Zhang.

 Total times  cpu:       70.4s     wall:      100.8s
