 argument  1 = input.nw
  NWChem w/ OpenMP: maximum threads =    1



============================== echo of input deck ==============================
 echo
 start H2O
 title "H2O"

 memory total 24 gb

 geometry units bohr
 symmetry c1
        O  0.00000000  0.00000000  0.00000000
        H  0.00000000  3.6315965  0.00000000
        H  1.72558000 -0.64860000  0.00000000
 end

 basis spherical
   * library cc-pVTZ
 end

 mcscf
   active  8
   actelec 10
   multiplicity 1
   maxiter 40
   vectors input h2o.mos
   vectors output h2o.mos
 end

 task mcscf

 scf
   vectors input h2o.mos
   vectors output h2o-trash.mos
   noscf
 end

 tce
   2eorb
   2emet 13
   ccsd
   maxiter 300
 end

 set tce:print_integrals T
 set tce:qorb 8
 set tce:qela 5
 set tce:qelb 5

# set tce:qducc T
# set tce:nactv 3
# set tce:nonhf T
# set tce:ducc_model 6

 set tce:printtol 0.02

 task tce
================================================================================


                                         
                                         


             Northwest Computational Chemistry Package (NWChem) 7.0.1
             --------------------------------------------------------


                    Environmental Molecular Sciences Laboratory
                       Pacific Northwest National Laboratory
                                Richland, WA 99352

                              Copyright (c) 1994-2020
                       Pacific Northwest National Laboratory
                            Battelle Memorial Institute

             NWChem is an open-source computational chemistry package
                        distributed under the terms of the
                      Educational Community License (ECL) 2.0
             A copy of the license is included with this distribution
                              in the LICENSE.TXT file

                                  ACKNOWLEDGMENT
                                  --------------

            This software and its documentation were developed at the
            EMSL at Pacific Northwest National Laboratory, a multiprogram
            national laboratory, operated for the U.S. Department of Energy
            by Battelle under Contract Number DE-AC05-76RL01830. Support
            for this work was provided by the Department of Energy Office
            of Biological and Environmental Research, Office of Basic
            Energy Sciences, and the Office of Advanced Scientific Computing.


           Job information
           ---------------

    hostname        = WE46210
    program         = /home/baum612/code/nwchem/bin/LINUX64/nwchem
    date            = Thu May  2 11:53:13 2024

    compiled        = Tue_Apr_30_12:43:26_2024
    source          = /home/baum612/code/nwchem
    nwchem branch   = 7.0.0
    nwchem revision = nwchem_on_git-4191-g39d87d64de
    ga revision     = 5.8.1
    use scalapack   = F
    input           = input.nw
    prefix          = H2O.
    data base       = ./H2O.db
    status          = startup
    nproc           =        1
    time left       =     -1s



           Memory information
           ------------------

    heap     =  805306362 doubles =   6144.0 Mbytes
    stack    =  805306367 doubles =   6144.0 Mbytes
    global   = 1610612736 doubles =  12288.0 Mbytes (distinct from heap & stack)
    total    = 3221225465 doubles =  24576.0 Mbytes
    verify   = yes
    hardfail = no 


           Directory information
           ---------------------

  0 permanent = .
  0 scratch   = .




                                NWChem Input Module
                                -------------------


                                        H2O
                                        ---
 Turning off AUTOSYM since
 SYMMETRY directive was detected!


          ------
          auto-z
          ------
  autoz: The atoms group into disjoint clusters
 cluster   1:    1    3
 cluster   2:    2
 Connecting clusters   1   2 via atoms    1    2 r = 1.92
  autoz: regenerating connections with new bonds
  no constraints, skipping    0.0000000000000000     
  no constraints, skipping    0.0000000000000000     


                             Geometry "geometry" -> ""
                             -------------------------

 Output coordinates in a.u. (scale by  1.000000000 to convert to a.u.)

  No.       Tag          Charge          X              Y              Z
 ---- ---------------- ---------- -------------- -------------- --------------
    1 O                    8.0000    -0.17255800    -0.29829965     0.00000000
    2 H                    1.0000    -0.17255800     3.33329685     0.00000000
    3 H                    1.0000     1.55302200    -0.94689965     0.00000000

      Atomic Mass 
      ----------- 

      O                 15.994910
      H                  1.007825


 Effective nuclear repulsion energy (a.u.)       6.7592641733

            Nuclear Dipole moment (a.u.) 
            ----------------------------
        X                 Y               Z
 ---------------- ---------------- ----------------
    -0.0000000000    -0.0000000000     0.0000000000



                                Z-matrix (autoz)
                                -------- 

 Units are Angstrom for bonds and degrees for angles

      Type          Name      I     J     K     L     M      Value
      ----------- --------  ----- ----- ----- ----- ----- ----------
    1 Stretch                  1     2                       1.92176
    2 Stretch                  1     3                       0.97551
    3 Bend                     2     1     3               110.59992


            XYZ format geometry
            -------------------
     3
 geometry
 O                    -0.09131377    -0.15785339     0.00000000
 H                    -0.09131377     1.76390486     0.00000000
 H                     0.82182391    -0.50107775     0.00000000

 ==============================================================================
                                internuclear distances
 ------------------------------------------------------------------------------
       center one      |      center two      | atomic units |       a.u.
 ------------------------------------------------------------------------------
    3 H                |   1 O                |     1.84345  |     1.84345
 ------------------------------------------------------------------------------
                         number of included internuclear distances:          1
 ==============================================================================





 Summary of "ao basis" -> "" (spherical)
 ------------------------------------------------------------------------------
       Tag                 Description            Shells   Functions and Types
 ---------------- ------------------------------  ------  ---------------------
 *                          cc-pVTZ                   on all atoms 


                      Basis "ao basis" -> "ao basis" (spherical)
                      -----
  O (Oxygen)
  ----------
            Exponent  Coefficients 
       -------------- ---------------------------------------------------------
  1 S  1.53300000E+04  0.000508
  1 S  2.29900000E+03  0.003929
  1 S  5.22400000E+02  0.020243
  1 S  1.47300000E+02  0.079181
  1 S  4.75500000E+01  0.230687
  1 S  1.67600000E+01  0.433118
  1 S  6.20700000E+00  0.350260
  1 S  6.88200000E-01 -0.008154

  2 S  1.53300000E+04 -0.000115
  2 S  2.29900000E+03 -0.000895
  2 S  5.22400000E+02 -0.004636
  2 S  1.47300000E+02 -0.018724
  2 S  4.75500000E+01 -0.058463
  2 S  1.67600000E+01 -0.136463
  2 S  6.20700000E+00 -0.175740
  2 S  6.88200000E-01  0.603418

  3 S  1.75200000E+00  1.000000

  4 S  2.38400000E-01  1.000000

  5 P  3.44600000E+01  0.015928
  5 P  7.74900000E+00  0.099740
  5 P  2.28000000E+00  0.310492

  6 P  7.15600000E-01  1.000000

  7 P  2.14000000E-01  1.000000

  8 D  2.31400000E+00  1.000000

  9 D  6.45000000E-01  1.000000

 10 F  1.42800000E+00  1.000000

  H (Hydrogen)
  ------------
            Exponent  Coefficients 
       -------------- ---------------------------------------------------------
  1 S  3.38700000E+01  0.006068
  1 S  5.09500000E+00  0.045308
  1 S  1.15900000E+00  0.202822

  2 S  3.25800000E-01  1.000000

  3 S  1.02700000E-01  1.000000

  4 P  1.40700000E+00  1.000000

  5 P  3.88000000E-01  1.000000

  6 D  1.05700000E+00  1.000000



 Summary of "ao basis" -> "ao basis" (spherical)
 ------------------------------------------------------------------------------
       Tag                 Description            Shells   Functions and Types
 ---------------- ------------------------------  ------  ---------------------
 O                          cc-pVTZ                 10       30   4s3p2d1f
 H                          cc-pVTZ                  6       14   3s2p1d



                            NWChem Direct MCSCF Module
                            --------------------------


                                        H2O


     -----------------------------------
       Basis functions:             58
       Inactive shells:              0
       Active shells:                8
       Active electrons:            10
       Symmetry:                    a       
       Multiplicity:                 1
       Orbital rotations:          400
     -----------------------------------

     -----------------------------------
       E2 extrapolation:             F
       Conjugacy:                    T
       Micro CI relax:               T
       Canonical orbitals:           T
       Maximum iterations:          40
       Converge threshold:    1.00E-04
       Conjugacy resets:            20
       Initial levelshift:        0.10
     -----------------------------------

 Loading old vectors from job with title :

H2O


   input molecular orbitals = ./h2o.mos
  output molecular orbtials = ./h2o.mos

       No. of determinants:          3136


  Starting Orbital Energies
   -20.604699    -1.300830    -0.666029    -0.540948    -0.443196    -0.125547
    -0.026291    -0.013461     0.299493     0.378164     0.611814     0.772429
     0.792429     0.860492     0.888877     0.931248     0.970540     1.323664
     1.368306     1.737098     1.860307     2.031833     2.044759     2.174796
     2.623188     2.780224     3.418898     3.425981     3.442575     3.443597
     3.470452     3.534346     3.561650     3.639350     3.789126     3.880676
     3.939207     3.969085     4.038918     4.086797     4.232446     4.404489
     4.481136     4.735744     5.142928     5.558034     5.595535     5.806795
     5.842843     6.734150     6.802471     6.833932     6.840378     7.005969
     7.063695     7.120188     7.544788    10.858845

  Orbital Symmetry Irreps
a    a    a    a    a    a    a    a    a    a    a    a    a    a    a   
a    a    a    a    a    a    a    a    a    a    a    a    a    a    a   
a    a    a    a    a    a    a    a    a    a    a    a    a    a    a   
a    a    a    a    a    a    a    a    a    a    a    a    a   

 Integral file          = ./H2O.aoints.0
 Record size in doubles =  65536        No. of integs per rec  =  43688
 Max. records in memory =     49        Max. records in file   = 250655
 No. of bits per label  =      8        No. of bits per value  =     64


 #quartets = 3.212D+04 #integrals = 6.558D+05 #direct =  0.0% #cached =100.0%




          %%%%% MacroIteration   1 %%%%%


          Number of sigma calls:       23
                       o<<<<< (aa):             0.00
                       o<<<<< (bb):             0.00
                       o<<<<< (ab):             0.05
                       o<<<<< (total)           0.05
                       o<<<<< (aa) ff           0.00
                       o<<<<< (aa) gop          0.00
                       o<<<<< (aa) dot          0.00
                       o<<<<< (ab) str          0.00
                       o<<<<< (ab) gath         0.00
                       o<<<<< (ab) dotab        0.00
                       o<<<<< (ab) scat         0.00
                       o<<<<< (ab) sync         0.00
                       o<<<<< Density           0.01
                       o<<<<< Density one       0.00
                       o<<<<< Density two       0.00
                       o<<<<< Density ab        0.00
                       o<<<<< Spin adapt        0.31
                       o<<<<< Symm adapt        0.00

                       o<<<<< (ab) max sync:      0.00

           >>>| Valence CI:            -82.753686110070
           >>>| MCSCF energy:          -75.994421936781
           >>>| Gradient norm:          0.400219306D-02

                              ----- Line search ------

        step       energy         lsg     num-lsg   num-lsh   lsrat    time
      ------- ---------------- --------- --------- --------- ------- --------
       0.0000     -75.99442194 -3.34D-06  0.00D+00  0.00D+00 0.0D+00      1.0

          Number of sigma calls:       20
                       o<<<<< (aa):             0.00
                       o<<<<< (bb):             0.00
                       o<<<<< (ab):             0.05
                       o<<<<< (total)           0.05
                       o<<<<< (aa) ff           0.00
                       o<<<<< (aa) gop          0.00
                       o<<<<< (aa) dot          0.00
                       o<<<<< (ab) str          0.00
                       o<<<<< (ab) gath         0.00
                       o<<<<< (ab) dotab        0.00
                       o<<<<< (ab) scat         0.00
                       o<<<<< (ab) sync         0.00
                       o<<<<< Density           0.00
                       o<<<<< Density one       0.00
                       o<<<<< Density two       0.00
                       o<<<<< Density ab        0.00
                       o<<<<< Spin adapt        0.30
                       o<<<<< Symm adapt        0.00

                       o<<<<< (ab) max sync:      0.00
       1.0000     -75.99442389 -5.66D-07 -5.66D-07  2.77D-06 1.7D-01      1.4

          Number of sigma calls:       16
                       o<<<<< (aa):             0.00
                       o<<<<< (bb):             0.00
                       o<<<<< (ab):             0.05
                       o<<<<< (total)           0.05
                       o<<<<< (aa) ff           0.00
                       o<<<<< (aa) gop          0.00
                       o<<<<< (aa) dot          0.00
                       o<<<<< (ab) str          0.00
                       o<<<<< (ab) gath         0.00
                       o<<<<< (ab) dotab        0.00
                       o<<<<< (ab) scat         0.00
                       o<<<<< (ab) sync         0.00
                       o<<<<< Density           0.00
                       o<<<<< Density one       0.00
                       o<<<<< Density two       0.00
                       o<<<<< Density ab        0.00
                       o<<<<< Spin adapt        0.33
                       o<<<<< Symm adapt        0.00

                       o<<<<< (ab) max sync:      0.00
       1.2041     -75.99442395  7.39D-10  7.18D-10  2.78D-06 2.2D-04      1.9
     --- Orbitals canonicalized ---



          %%%%% MacroIteration   2 %%%%%


          Number of sigma calls:       22
                       o<<<<< (aa):             0.00
                       o<<<<< (bb):             0.00
                       o<<<<< (ab):             0.06
                       o<<<<< (total)           0.07
                       o<<<<< (aa) ff           0.00
                       o<<<<< (aa) gop          0.00
                       o<<<<< (aa) dot          0.00
                       o<<<<< (ab) str          0.00
                       o<<<<< (ab) gath         0.00
                       o<<<<< (ab) dotab        0.00
                       o<<<<< (ab) scat         0.00
                       o<<<<< (ab) sync         0.00
                       o<<<<< Density           0.01
                       o<<<<< Density one       0.00
                       o<<<<< Density two       0.00
                       o<<<<< Density ab        0.01
                       o<<<<< Spin adapt        0.29
                       o<<<<< Symm adapt        0.00

                       o<<<<< (ab) max sync:      0.00

           >>>| Valence CI:            -82.753688120301
           >>>| MCSCF energy:          -75.994423947012
           >>>| Gradient norm:          0.718854351D-03
     --- Warning:    4 Hessian diagonals < 0.05 ---
     --- Conjugacy reset ---

                              ----- Line search ------

        step       energy         lsg     num-lsg   num-lsh   lsrat    time
      ------- ---------------- --------- --------- --------- ------- --------
       0.0000     -75.99442395 -1.29D-07  0.00D+00  0.00D+00 0.0D+00      2.4

          Number of sigma calls:       16
                       o<<<<< (aa):             0.00
                       o<<<<< (bb):             0.00
                       o<<<<< (ab):             0.05
                       o<<<<< (total)           0.05
                       o<<<<< (aa) ff           0.00
                       o<<<<< (aa) gop          0.00
                       o<<<<< (aa) dot          0.00
                       o<<<<< (ab) str          0.00
                       o<<<<< (ab) gath         0.00
                       o<<<<< (ab) dotab        0.00
                       o<<<<< (ab) scat         0.00
                       o<<<<< (ab) sync         0.00
                       o<<<<< Density           0.01
                       o<<<<< Density one       0.00
                       o<<<<< Density two       0.00
                       o<<<<< Density ab        0.01
                       o<<<<< Spin adapt        0.27
                       o<<<<< Symm adapt        0.00

                       o<<<<< (ab) max sync:      0.00
       1.0000     -75.99442402 -2.34D-08 -2.34D-08  1.05D-07 1.8D-01      2.8

          Number of sigma calls:       13
                       o<<<<< (aa):             0.00
                       o<<<<< (bb):             0.00
                       o<<<<< (ab):             0.04
                       o<<<<< (total)           0.05
                       o<<<<< (aa) ff           0.00
                       o<<<<< (aa) gop          0.00
                       o<<<<< (aa) dot          0.00
                       o<<<<< (ab) str          0.00
                       o<<<<< (ab) gath         0.00
                       o<<<<< (ab) dotab        0.00
                       o<<<<< (ab) scat         0.00
                       o<<<<< (ab) sync         0.00
                       o<<<<< Density           0.01
                       o<<<<< Density one       0.00
                       o<<<<< Density two       0.00
                       o<<<<< Density ab        0.01
                       o<<<<< Spin adapt        0.26
                       o<<<<< Symm adapt        0.00

                       o<<<<< (ab) max sync:      0.00
       1.2229     -75.99442403  6.47D-12  5.78D-12  1.05D-07 5.0D-05      3.3



          %%%%% MacroIteration   3 %%%%%


          Number of sigma calls:        1
                       o<<<<< (aa):             0.00
                       o<<<<< (bb):             0.00
                       o<<<<< (ab):             0.00
                       o<<<<< (total)           0.00
                       o<<<<< (aa) ff           0.00
                       o<<<<< (aa) gop          0.00
                       o<<<<< (aa) dot          0.00
                       o<<<<< (ab) str          0.00
                       o<<<<< (ab) gath         0.00
                       o<<<<< (ab) dotab        0.00
                       o<<<<< (ab) scat         0.00
                       o<<<<< (ab) sync         0.00
                       o<<<<< Density           0.01
                       o<<<<< Density one       0.00
                       o<<<<< Density two       0.00
                       o<<<<< Density ab        0.01
                       o<<<<< Spin adapt        0.00
                       o<<<<< Symm adapt        0.00

                       o<<<<< (ab) max sync:      0.00

           >>>| Valence CI:            -82.753688198914
           >>>| MCSCF energy:          -75.994424025624
           >>>| Gradient norm:          0.162340948D-03
     --- Warning:    4 Hessian diagonals < 0.05 ---

                              ----- Line search ------

        step       energy         lsg     num-lsg   num-lsh   lsrat    time
      ------- ---------------- --------- --------- --------- ------- --------
       0.0000     -75.99442403 -5.50D-09  0.00D+00  0.00D+00 0.0D+00      3.3

          Number of sigma calls:       12
                       o<<<<< (aa):             0.00
                       o<<<<< (bb):             0.00
                       o<<<<< (ab):             0.02
                       o<<<<< (total)           0.03
                       o<<<<< (aa) ff           0.00
                       o<<<<< (aa) gop          0.00
                       o<<<<< (aa) dot          0.00
                       o<<<<< (ab) str          0.00
                       o<<<<< (ab) gath         0.00
                       o<<<<< (ab) dotab        0.00
                       o<<<<< (ab) scat         0.00
                       o<<<<< (ab) sync         0.00
                       o<<<<< Density           0.01
                       o<<<<< Density one       0.00
                       o<<<<< Density two       0.00
                       o<<<<< Density ab        0.01
                       o<<<<< Spin adapt        0.25
                       o<<<<< Symm adapt        0.00

                       o<<<<< (ab) max sync:      0.00
       1.0000     -75.99442403 -9.49D-10 -9.49D-10  4.55D-09 1.7D-01      3.7

          Number of sigma calls:       11
                       o<<<<< (aa):             0.00
                       o<<<<< (bb):             0.00
                       o<<<<< (ab):             0.03
                       o<<<<< (total)           0.04
                       o<<<<< (aa) ff           0.00
                       o<<<<< (aa) gop          0.00
                       o<<<<< (aa) dot          0.00
                       o<<<<< (ab) str          0.00
                       o<<<<< (ab) gath         0.00
                       o<<<<< (ab) dotab        0.00
                       o<<<<< (ab) scat         0.00
                       o<<<<< (ab) sync         0.00
                       o<<<<< Density           0.00
                       o<<<<< Density one       0.00
                       o<<<<< Density two       0.00
                       o<<<<< Density ab        0.00
                       o<<<<< Spin adapt        0.27
                       o<<<<< Symm adapt        0.00

                       o<<<<< (ab) max sync:      0.00
       1.2088     -75.99442403 -2.97D-14  7.35D-13  4.55D-09 5.4D-06      4.1



          %%%%% MacroIteration   4 %%%%%


          Number of sigma calls:        1
                       o<<<<< (aa):             0.00
                       o<<<<< (bb):             0.00
                       o<<<<< (ab):             0.00
                       o<<<<< (total)           0.01
                       o<<<<< (aa) ff           0.00
                       o<<<<< (aa) gop          0.00
                       o<<<<< (aa) dot          0.00
                       o<<<<< (ab) str          0.00
                       o<<<<< (ab) gath         0.00
                       o<<<<< (ab) dotab        0.00
                       o<<<<< (ab) scat         0.00
                       o<<<<< (ab) sync         0.00
                       o<<<<< Density           0.00
                       o<<<<< Density one       0.00
                       o<<<<< Density two       0.00
                       o<<<<< Density ab        0.00
                       o<<<<< Spin adapt        0.00
                       o<<<<< Symm adapt        0.00

                       o<<<<< (ab) max sync:      0.00

           >>>| Valence CI:            -82.753688202234
           >>>| MCSCF energy:          -75.994424028945
           >>>| Gradient norm:          0.336852783D-04




     ==============================
            MCSCF Converged
     ==============================



          Canonical Eigenvalues

              1      
    1  -20.6050
    2   -1.3011
    3   -0.6663
    4   -0.5413
    5   -0.4414
    6   -0.1273
    7   -0.0263
    8   -0.0134
    9    0.2990
   10    0.3788
   11    0.6121
   12    0.7724
   13    0.7920
   14    0.8588
   15    0.8876
   16    0.9306
   17    0.9701
   18    1.3233
   19    1.3675
   20    1.7362
   21    1.8562
   22    2.0315
   23    2.0444
   24    2.1744
   25    2.6214
   26    2.7797
   27    3.4208
   28    3.4268
   29    3.4432
   30    3.4441
   31    3.4710
   32    3.5315
   33    3.5609
   34    3.6373
   35    3.7857
   36    3.8803
   37    3.9382
   38    3.9688
   39    4.0379
   40    4.0881
   41    4.2279
   42    4.4041
   43    4.4771
   44    4.7348
   45    5.1422
   46    5.5570
   47    5.5934
   48    5.8062
   49    5.8407
   50    6.7326
   51    6.8007
   52    6.8328
   53    6.8400
   54    7.0038
   55    7.0634
   56    7.1143
   57    7.5432
   58   10.8573


          Converged CI vector

   Index           Coefficient          Config. Occupation
         1          0.87716894          1  2  3  4  5  1  2  3  4  5
         2          0.15205357          1  2  3  4  5  1  2  3  4  6
        23          0.05756064          1  2  3  4  5  1  2  3  5  8
         9          0.03668510          1  2  3  4  5  1  2  4  5  7
        41          0.02467942          1  2  3  4  5  1  2  5  7  8
        57          0.15205357          1  2  3  4  6  1  2  3  4  5
        58         -0.38523902          1  2  3  4  6  1  2  3  4  6
        83         -0.03006051          1  2  3  4  6  1  2  3  6  8
        60          0.03253541          1  2  3  4  6  1  2  4  5  6
        69         -0.02081790          1  2  3  4  6  1  2  4  6  7
      1233          0.05756064          1  2  3  5  8  1  2  3  4  5
      1255         -0.04883123          1  2  3  5  8  1  2  3  5  8
      1241         -0.03059862          1  2  3  5  8  1  2  4  5  7
      1458         -0.03006051          1  2  3  6  8  1  2  3  4  6
      1483          0.02448375          1  2  3  6  8  1  2  3  6  8
       170          0.03253541          1  2  4  5  6  1  2  3  4  6
       449          0.03668510          1  2  4  5  7  1  2  3  4  5
       471         -0.03059862          1  2  4  5  7  1  2  3  5  8
       457         -0.06488392          1  2  4  5  7  1  2  4  5  7
       458          0.02735495          1  2  4  5  7  1  3  4  5  7
       674         -0.02081790          1  2  4  6  7  1  2  3  4  6
       685          0.03066147          1  2  4  6  7  1  2  4  6  7
      2241          0.02467942          1  2  5  7  8  1  2  3  4  5
       513          0.02735495          1  3  4  5  7  1  2  4  5  7
       514         -0.02572193          1  3  4  5  7  1  3  4  5  7

          Number of sigma calls:        1
                       o<<<<< (aa):             0.00
                       o<<<<< (bb):             0.00
                       o<<<<< (ab):             0.00
                       o<<<<< (total)           0.00
                       o<<<<< (aa) ff           0.00
                       o<<<<< (aa) gop          0.00
                       o<<<<< (aa) dot          0.00
                       o<<<<< (ab) str          0.00
                       o<<<<< (ab) gath         0.00
                       o<<<<< (ab) dotab        0.00
                       o<<<<< (ab) scat         0.00
                       o<<<<< (ab) sync         0.00
                       o<<<<< Density           0.01
                       o<<<<< Density one       0.00
                       o<<<<< Density two       0.00
                       o<<<<< Density ab        0.01
                       o<<<<< Spin adapt        0.00
                       o<<<<< Symm adapt        0.00

                       o<<<<< (ab) max sync:      0.00



          Natural orbital occupation numbers

              1      
    1    2.0000
    2    1.9983
    3    1.9834
    4    1.9741
    5    1.6535
    6    0.3476
    7    0.0269
    8    0.0162


          Number of sigma calls:       23
                       o<<<<< (aa):             0.00
                       o<<<<< (bb):             0.00
                       o<<<<< (ab):             0.08
                       o<<<<< (total)           0.09
                       o<<<<< (aa) ff           0.00
                       o<<<<< (aa) gop          0.00
                       o<<<<< (aa) dot          0.00
                       o<<<<< (ab) str          0.00
                       o<<<<< (ab) gath         0.00
                       o<<<<< (ab) dotab        0.00
                       o<<<<< (ab) scat         0.00
                       o<<<<< (ab) sync         0.00
                       o<<<<< Density           0.01
                       o<<<<< Density one       0.00
                       o<<<<< Density two       0.00
                       o<<<<< Density ab        0.01
                       o<<<<< Spin adapt        0.31
                       o<<<<< Symm adapt        0.00

                       o<<<<< (ab) max sync:      0.00


       Final MCSCF results 
       ------------------- 

       Total MCSCF energy =    -75.994424028945
            Gradient norm =      3.4D-05

    CPU time for solution =      4.7s
   Wall time for solution =      8.7s



                        Analysis of MCSCF natural orbitals
                        ----------------------------------

 Vector    1  Occ=1.999991D+00  E=-2.060505D+01  Symmetry=a
              MO Center= -9.1D-02, -1.6D-01, -1.0D-13, r^2= 1.5D-02
   Bfn.  Coefficient  Atom+Function         Bfn.  Coefficient  Atom+Function  
  ----- ------------  ---------------      ----- ------------  ---------------
     1      0.974681  1 O  s          

 Vector    2  Occ=1.998340D+00  E=-1.301079D+00  Symmetry=a
              MO Center= -2.7D-01, -1.3D-01,  6.6D-11, r^2= 4.3D-01
   Bfn.  Coefficient  Atom+Function         Bfn.  Coefficient  Atom+Function  
  ----- ------------  ---------------      ----- ------------  ---------------
     2      0.550916  1 O  s                  4      0.403484  1 O  s          
     3      0.153460  1 O  s          

 Vector    3  Occ=1.983371D+00  E=-6.662830D-01  Symmetry=a
              MO Center= -6.2D-02, -1.7D-01, -6.6D-11, r^2= 6.2D-01
   Bfn.  Coefficient  Atom+Function         Bfn.  Coefficient  Atom+Function  
  ----- ------------  ---------------      ----- ------------  ---------------
    10      0.445160  1 O  pz                13      0.382924  1 O  pz         
     7      0.369281  1 O  pz         

 Vector    4  Occ=1.974130D+00  E=-5.412884D-01  Symmetry=a
              MO Center=  3.3D-01, -3.0D-01, -8.4D-13, r^2= 5.9D-01
   Bfn.  Coefficient  Atom+Function         Bfn.  Coefficient  Atom+Function  
  ----- ------------  ---------------      ----- ------------  ---------------
     8      0.337977  1 O  px                 5      0.281957  1 O  px         
    46      0.277925  3 H  s                 45      0.187927  3 H  s          
    11      0.186974  1 O  px         

 Vector    5  Occ=1.653514D+00  E=-4.413595D-01  Symmetry=a
              MO Center= -6.0D-02,  7.1D-01, -5.8D-13, r^2= 1.5D+00
   Bfn.  Coefficient  Atom+Function         Bfn.  Coefficient  Atom+Function  
  ----- ------------  ---------------      ----- ------------  ---------------
     9      0.311145  1 O  py                32      0.304369  2 H  s          
     6      0.244227  1 O  py                33      0.243829  2 H  s          
    12      0.219812  1 O  py         

 Vector    6  Occ=3.476070D-01  E=-1.273077D-01  Symmetry=a
              MO Center= -7.4D-02,  9.0D-01, -1.3D-12, r^2= 1.6D+00
   Bfn.  Coefficient  Atom+Function         Bfn.  Coefficient  Atom+Function  
  ----- ------------  ---------------      ----- ------------  ---------------
    32      0.433155  2 H  s                  9     -0.383098  1 O  py         
     6     -0.297282  1 O  py                33      0.265666  2 H  s          
    31      0.196388  2 H  s                 12     -0.178156  1 O  py         

 Vector    7  Occ=2.685135D-02  E=-2.628797D-02  Symmetry=a
              MO Center=  5.2D-01, -3.7D-01, -1.6D-14, r^2= 6.1D-01
   Bfn.  Coefficient  Atom+Function         Bfn.  Coefficient  Atom+Function  
  ----- ------------  ---------------      ----- ------------  ---------------
    46      0.687368  3 H  s                  5     -0.488041  1 O  px         
     8     -0.426491  1 O  px                45      0.335210  3 H  s          
     2     -0.286291  1 O  s                  4     -0.246513  1 O  s          
     6      0.150402  1 O  py         

 Vector    8  Occ=1.619469D-02  E=-1.343937D-02  Symmetry=a
              MO Center=  3.4D-02, -1.9D-01, -9.3D-11, r^2= 1.2D+00
   Bfn.  Coefficient  Atom+Function         Bfn.  Coefficient  Atom+Function  
  ----- ------------  ---------------      ----- ------------  ---------------
    13      0.829051  1 O  pz                 7     -0.629303  1 O  pz         
    10     -0.297928  1 O  pz                53      0.154199  3 H  pz         

 Vector    9  Occ=0.000000D+00  E= 2.990104D-01  Symmetry=a
              MO Center=  1.1D+00, -7.0D-01,  2.9D-11, r^2= 3.6D+00
   Bfn.  Coefficient  Atom+Function         Bfn.  Coefficient  Atom+Function  
  ----- ------------  ---------------      ----- ------------  ---------------
    47      2.001605  3 H  s                  4     -1.293552  1 O  s          
    11     -0.598990  1 O  px                51     -0.442152  3 H  px         
    46     -0.244250  3 H  s                 52      0.175900  3 H  py         
    12      0.165497  1 O  py         

 Vector   10  Occ=0.000000D+00  E= 3.788457D-01  Symmetry=a
              MO Center= -1.3D-01,  2.0D+00,  1.4D-12, r^2= 3.2D+00
   Bfn.  Coefficient  Atom+Function         Bfn.  Coefficient  Atom+Function  
  ----- ------------  ---------------      ----- ------------  ---------------
    33      1.799114  2 H  s                 32     -1.288715  2 H  s          
    47     -0.454739  3 H  s                 12     -0.320929  1 O  py         
     4     -0.279694  1 O  s                 46      0.270371  3 H  s          

 Vector   11  Occ=0.000000D+00  E= 6.120667D-01  Symmetry=a
              MO Center= -4.3D-01,  5.4D-01, -2.5D-12, r^2= 2.2D+00
   Bfn.  Coefficient  Atom+Function         Bfn.  Coefficient  Atom+Function  
  ----- ------------  ---------------      ----- ------------  ---------------
    46      2.510098  3 H  s                  4     -2.029893  1 O  s          
    11     -2.008634  1 O  px                51     -0.763566  3 H  px         
    12      0.625449  1 O  py                37     -0.422762  2 H  px         
    47      0.335227  3 H  s                 52      0.197408  3 H  py         
    33     -0.186460  2 H  s                 23     -0.172044  1 O  d  2       

 Vector   12  Occ=0.000000D+00  E= 7.723525D-01  Symmetry=a
              MO Center=  6.9D-02,  1.3D+00,  2.0D-12, r^2= 1.9D+00
   Bfn.  Coefficient  Atom+Function         Bfn.  Coefficient  Atom+Function  
  ----- ------------  ---------------      ----- ------------  ---------------
    39      0.916692  2 H  pz                53     -0.549756  3 H  pz         
    13      0.224261  1 O  pz         

 Vector   13  Occ=0.000000D+00  E= 7.919533D-01  Symmetry=a
              MO Center=  1.2D-01,  9.8D-02,  5.6D-13, r^2= 2.5D+00
   Bfn.  Coefficient  Atom+Function         Bfn.  Coefficient  Atom+Function  
  ----- ------------  ---------------      ----- ------------  ---------------
    46      1.198845  3 H  s                  4     -1.025886  1 O  s          
    12      0.971924  1 O  py                11     -0.778377  1 O  px         
    52      0.616594  3 H  py                 9     -0.523106  1 O  py         
    37      0.346752  2 H  px                51     -0.252954  3 H  px         
    38     -0.229025  2 H  py                32     -0.214903  2 H  s          

 Vector   14  Occ=0.000000D+00  E= 8.588153D-01  Symmetry=a
              MO Center= -1.5D-01,  9.1D-01, -1.8D-12, r^2= 2.4D+00
   Bfn.  Coefficient  Atom+Function         Bfn.  Coefficient  Atom+Function  
  ----- ------------  ---------------      ----- ------------  ---------------
    11      1.226047  1 O  px                46     -1.183067  3 H  s          
     4      0.984079  1 O  s                 37     -0.626543  2 H  px         
    52     -0.615414  3 H  py                38     -0.465991  2 H  py         
    32     -0.367158  2 H  s                 33      0.300175  2 H  s          
     9     -0.264932  1 O  py                12      0.243003  1 O  py         

 Vector   15  Occ=0.000000D+00  E= 8.875596D-01  Symmetry=a
              MO Center=  8.7D-02,  7.0D-01,  5.4D-14, r^2= 2.8D+00
   Bfn.  Coefficient  Atom+Function         Bfn.  Coefficient  Atom+Function  
  ----- ------------  ---------------      ----- ------------  ---------------
     4      0.710143  1 O  s                 38     -0.661553  2 H  py         
    37      0.580745  2 H  px                47     -0.551177  3 H  s          
    12     -0.463400  1 O  py                 2     -0.457480  1 O  s          
    52     -0.380823  3 H  py                33      0.356281  2 H  s          
     8      0.275231  1 O  px                11     -0.239462  1 O  px         

 Vector   16  Occ=0.000000D+00  E= 9.305902D-01  Symmetry=a
              MO Center=  3.3D-01,  3.4D-02, -1.8D-12, r^2= 2.5D+00
   Bfn.  Coefficient  Atom+Function         Bfn.  Coefficient  Atom+Function  
  ----- ------------  ---------------      ----- ------------  ---------------
    53      1.135582  3 H  pz                13     -0.926747  1 O  pz         
    39      0.541572  2 H  pz         

 Vector   17  Occ=0.000000D+00  E= 9.700860D-01  Symmetry=a
              MO Center=  1.5D-01, -3.3D-01,  2.3D-11, r^2= 2.6D+00
   Bfn.  Coefficient  Atom+Function         Bfn.  Coefficient  Atom+Function  
  ----- ------------  ---------------      ----- ------------  ---------------
     4      2.448138  1 O  s                 46     -1.751675  3 H  s          
    12     -1.470734  1 O  py                51      1.073461  3 H  px         
    11      0.851725  1 O  px                47     -0.690466  3 H  s          
    52      0.646669  3 H  py                 2     -0.530636  1 O  s          
    38     -0.428461  2 H  py                37     -0.387083  2 H  px         

 Vector   18  Occ=0.000000D+00  E= 1.323327D+00  Symmetry=a
              MO Center= -3.6D-02,  3.2D-01,  4.6D-11, r^2= 2.2D+00
   Bfn.  Coefficient  Atom+Function         Bfn.  Coefficient  Atom+Function  
  ----- ------------  ---------------      ----- ------------  ---------------
     4      4.100081  1 O  s                 46     -2.424435  3 H  s          
    51      1.391746  3 H  px                11      1.176861  1 O  px         
    52     -0.978362  3 H  py                 2     -0.797224  1 O  s          
    38      0.785707  2 H  py                 8      0.757982  1 O  px         
    47     -0.648785  3 H  s                 12      0.576234  1 O  py         


 Wrote Lagrangian and 1- and 2-particle density matrices to ./H2O.mcpdm


     Multipole analysis of the density
     ---------------------------------

     L   x y z        total        nuclear
     -   - - -        -----        -------
     0   0 0 0     -0.000000     10.000000

     1   1 0 0      0.563612     -0.000000
     1   0 1 0      0.039766     -0.000000
     1   0 0 1      0.000000      0.000000

     2   2 0 0     -4.480517      2.679864
     2   1 1 0     -0.699287     -1.633951
     2   1 0 1     -0.000000      0.000000
     2   0 2 0     -3.596582     12.719348
     2   0 1 1     -0.000000      0.000000
     2   0 0 2     -5.934716      0.000000


  Mulliken analysis of the total density
  --------------------------------------

    Atom       Charge   Shell Charges
 -----------   ------   -------------------------------------------------------
    1 O    8     8.31   1.95  1.05  0.25  0.64  1.22  1.95  1.23  0.00  0.01  0.00
    2 H    1     0.94   0.16  0.46  0.31  0.00  0.01  0.00
    3 H    1     0.76   0.25  0.39  0.04  0.02  0.06  0.01

    Mulliken analysis of the active space density
    ---------------------------------------------

    Atom       Charge   Shell Charges
 -----------   ------   -------------------------------------------------------
    1 O    8     8.31   1.95  1.05  0.25  0.64  1.22  1.95  1.23  0.00  0.01  0.00
    2 H    1     0.94   0.16  0.46  0.31  0.00  0.01  0.00
    3 H    1     0.76   0.25  0.39  0.04  0.02  0.06  0.01

 Parallel integral file used      16 records with       0 large values


 Task  times  cpu:        4.7s     wall:        8.7s


                                NWChem Input Module
                                -------------------


                                 NWChem SCF Module
                                 -----------------


                                        H2O



  ao basis        = "ao basis"
  functions       =    58
  atoms           =     3
  closed shells   =     5
  open shells     =     0
  charge          =   0.00
  wavefunction    = RHF 
  input vectors   = ./h2o.mos
  output vectors  = ./h2o-trash.mos
  use symmetry    = F
  symmetry adapt  = F


 Summary of "ao basis" -> "ao basis" (spherical)
 ------------------------------------------------------------------------------
       Tag                 Description            Shells   Functions and Types
 ---------------- ------------------------------  ------  ---------------------
 O                          cc-pVTZ                 10       30   4s3p2d1f
 H                          cc-pVTZ                  6       14   3s2p1d



 Forming initial guess at       8.7s


 Loading old vectors from job with title :

H2O


 Starting SCF solution at       8.7s



 ----------------------------------------------
         Quadratically convergent ROHF

 Convergence threshold     :          1.000E-04
 Maximum no. of iterations :           30
 Final Fock-matrix accuracy:          1.000E-07
 ----------------------------------------------


 Integral file          = ./H2O.aoints.0
 Record size in doubles =  65536        No. of integs per rec  =  43688
 Max. records in memory =     49        Max. records in file   = 250693
 No. of bits per label  =      8        No. of bits per value  =     64


 #quartets = 3.206D+04 #integrals = 6.527D+05 #direct =  0.0% #cached =100.0%



       Final RHF  results 
       ------------------ 

         Total SCF energy =    -75.823035041295
      One-electron energy =   -118.140485907264
      Two-electron energy =     35.558186692680
 Nuclear repulsion energy =      6.759264173289

        Time for solution =      0.1s


             Final eigenvalues
             -----------------

              1      
    1  -20.6050
    2   -1.3011
    3   -0.6663
    4   -0.5413
    5   -0.4414
    6   -0.1273
    7   -0.0263
    8   -0.0134
    9    0.2990
   10    0.3788
   11    0.6121
   12    0.7724
   13    0.7920
   14    0.8588
   15    0.8876

                       ROHF Final Molecular Orbital Analysis
                       -------------------------------------

 Vector    2  Occ=2.000000D+00  E=-1.301079D+00
              MO Center= -2.7D-01, -1.3D-01,  6.6D-11, r^2= 4.3D-01
   Bfn.  Coefficient  Atom+Function         Bfn.  Coefficient  Atom+Function  
  ----- ------------  ---------------      ----- ------------  ---------------
     2      0.550916  1 O  s                  4      0.403484  1 O  s          
     3      0.153460  1 O  s          

 Vector    3  Occ=2.000000D+00  E=-6.662830D-01
              MO Center= -6.2D-02, -1.7D-01, -6.6D-11, r^2= 6.2D-01
   Bfn.  Coefficient  Atom+Function         Bfn.  Coefficient  Atom+Function  
  ----- ------------  ---------------      ----- ------------  ---------------
    10      0.445160  1 O  pz                13      0.382924  1 O  pz         
     7      0.369281  1 O  pz         

 Vector    4  Occ=2.000000D+00  E=-5.412884D-01
              MO Center=  3.3D-01, -3.0D-01, -8.4D-13, r^2= 5.9D-01
   Bfn.  Coefficient  Atom+Function         Bfn.  Coefficient  Atom+Function  
  ----- ------------  ---------------      ----- ------------  ---------------
     8      0.337977  1 O  px                 5      0.281957  1 O  px         
    46      0.277925  3 H  s                 45      0.187927  3 H  s          
    11      0.186974  1 O  px         

 Vector    5  Occ=2.000000D+00  E=-4.413595D-01
              MO Center= -6.0D-02,  7.1D-01, -5.8D-13, r^2= 1.5D+00
   Bfn.  Coefficient  Atom+Function         Bfn.  Coefficient  Atom+Function  
  ----- ------------  ---------------      ----- ------------  ---------------
     9      0.311145  1 O  py                32      0.304369  2 H  s          
     6      0.244227  1 O  py                33      0.243829  2 H  s          
    12      0.219812  1 O  py         

 Vector    6  Occ=0.000000D+00  E=-1.273077D-01
              MO Center= -7.4D-02,  9.0D-01, -1.3D-12, r^2= 1.6D+00
   Bfn.  Coefficient  Atom+Function         Bfn.  Coefficient  Atom+Function  
  ----- ------------  ---------------      ----- ------------  ---------------
    32      0.433155  2 H  s                  9     -0.383098  1 O  py         
     6     -0.297282  1 O  py                33      0.265666  2 H  s          
    31      0.196388  2 H  s                 12     -0.178156  1 O  py         

 Vector    7  Occ=0.000000D+00  E=-2.628797D-02
              MO Center=  5.2D-01, -3.7D-01, -1.6D-14, r^2= 6.1D-01
   Bfn.  Coefficient  Atom+Function         Bfn.  Coefficient  Atom+Function  
  ----- ------------  ---------------      ----- ------------  ---------------
    46      0.687368  3 H  s                  5     -0.488041  1 O  px         
     8     -0.426491  1 O  px                45      0.335210  3 H  s          
     2     -0.286291  1 O  s                  4     -0.246513  1 O  s          
     6      0.150402  1 O  py         

 Vector    8  Occ=0.000000D+00  E=-1.343937D-02
              MO Center=  3.4D-02, -1.9D-01, -9.3D-11, r^2= 1.2D+00
   Bfn.  Coefficient  Atom+Function         Bfn.  Coefficient  Atom+Function  
  ----- ------------  ---------------      ----- ------------  ---------------
    13      0.829051  1 O  pz                 7     -0.629303  1 O  pz         
    10     -0.297928  1 O  pz                53      0.154199  3 H  pz         

 Vector    9  Occ=0.000000D+00  E= 2.990104D-01
              MO Center=  1.1D+00, -7.0D-01,  2.9D-11, r^2= 3.6D+00
   Bfn.  Coefficient  Atom+Function         Bfn.  Coefficient  Atom+Function  
  ----- ------------  ---------------      ----- ------------  ---------------
    47      2.001605  3 H  s                  4     -1.293552  1 O  s          
    11     -0.598990  1 O  px                51     -0.442152  3 H  px         
    46     -0.244250  3 H  s                 52      0.175900  3 H  py         
    12      0.165497  1 O  py         

 Vector   10  Occ=0.000000D+00  E= 3.788457D-01
              MO Center= -1.3D-01,  2.0D+00,  1.4D-12, r^2= 3.2D+00
   Bfn.  Coefficient  Atom+Function         Bfn.  Coefficient  Atom+Function  
  ----- ------------  ---------------      ----- ------------  ---------------
    33      1.799114  2 H  s                 32     -1.288715  2 H  s          
    47     -0.454739  3 H  s                 12     -0.320929  1 O  py         
     4     -0.279694  1 O  s                 46      0.270371  3 H  s          

 Vector   11  Occ=0.000000D+00  E= 6.120667D-01
              MO Center= -4.3D-01,  5.4D-01, -2.5D-12, r^2= 2.2D+00
   Bfn.  Coefficient  Atom+Function         Bfn.  Coefficient  Atom+Function  
  ----- ------------  ---------------      ----- ------------  ---------------
    46      2.510098  3 H  s                  4     -2.029893  1 O  s          
    11     -2.008634  1 O  px                51     -0.763566  3 H  px         
    12      0.625449  1 O  py                37     -0.422762  2 H  px         
    47      0.335227  3 H  s                 52      0.197408  3 H  py         
    33     -0.186460  2 H  s                 23     -0.172044  1 O  d  2       

 Vector   12  Occ=0.000000D+00  E= 7.723525D-01
              MO Center=  6.9D-02,  1.3D+00,  2.0D-12, r^2= 1.9D+00
   Bfn.  Coefficient  Atom+Function         Bfn.  Coefficient  Atom+Function  
  ----- ------------  ---------------      ----- ------------  ---------------
    39      0.916692  2 H  pz                53     -0.549756  3 H  pz         
    13      0.224261  1 O  pz         

 Vector   13  Occ=0.000000D+00  E= 7.919533D-01
              MO Center=  1.2D-01,  9.8D-02,  5.6D-13, r^2= 2.5D+00
   Bfn.  Coefficient  Atom+Function         Bfn.  Coefficient  Atom+Function  
  ----- ------------  ---------------      ----- ------------  ---------------
    46      1.198845  3 H  s                  4     -1.025886  1 O  s          
    12      0.971924  1 O  py                11     -0.778377  1 O  px         
    52      0.616594  3 H  py                 9     -0.523106  1 O  py         
    37      0.346752  2 H  px                51     -0.252954  3 H  px         
    38     -0.229025  2 H  py                32     -0.214903  2 H  s          

 Vector   14  Occ=0.000000D+00  E= 8.588153D-01
              MO Center= -1.5D-01,  9.1D-01, -1.8D-12, r^2= 2.4D+00
   Bfn.  Coefficient  Atom+Function         Bfn.  Coefficient  Atom+Function  
  ----- ------------  ---------------      ----- ------------  ---------------
    11      1.226047  1 O  px                46     -1.183067  3 H  s          
     4      0.984079  1 O  s                 37     -0.626543  2 H  px         
    52     -0.615414  3 H  py                38     -0.465991  2 H  py         
    32     -0.367158  2 H  s                 33      0.300175  2 H  s          
     9     -0.264932  1 O  py                12      0.243003  1 O  py         

 Vector   15  Occ=0.000000D+00  E= 8.875596D-01
              MO Center=  8.7D-02,  7.0D-01,  5.4D-14, r^2= 2.8D+00
   Bfn.  Coefficient  Atom+Function         Bfn.  Coefficient  Atom+Function  
  ----- ------------  ---------------      ----- ------------  ---------------
     4      0.710143  1 O  s                 38     -0.661553  2 H  py         
    37      0.580745  2 H  px                47     -0.551177  3 H  s          
    12     -0.463400  1 O  py                 2     -0.457480  1 O  s          
    52     -0.380823  3 H  py                33      0.356281  2 H  s          
     8      0.275231  1 O  px                11     -0.239462  1 O  px         


 center of mass
 --------------
 x =  -0.07599894 y =  -0.13137877 z =   0.00000000

 moments of inertia (a.u.)
 ------------------
          13.213846247540           1.418258216707           0.000000000000
           1.418258216707           2.833002082974           0.000000000000
           0.000000000000           0.000000000000          16.046848330514

  Mulliken analysis of the total density
  --------------------------------------

    Atom       Charge   Shell Charges
 -----------   ------   -------------------------------------------------------
    1 O    8     8.34   1.95  1.05  0.25  0.65  1.20  1.96  1.28  0.00  0.01  0.00
    2 H    1     0.90   0.14  0.43  0.32  0.00  0.01  0.00
    3 H    1     0.75   0.25  0.39  0.04  0.02  0.06  0.01

       Multipole analysis of the density wrt the origin
       ------------------------------------------------

     L   x y z        total         open         nuclear
     -   - - -        -----         ----         -------
     0   0 0 0     -0.000000      0.000000     10.000000

     1   1 0 0      0.567772      0.000000     -0.000000
     1   0 1 0      0.163565      0.000000     -0.000000
     1   0 0 1      0.000000      0.000000      0.000000

     2   2 0 0     -4.504418      0.000000      2.679864
     2   1 1 0     -0.777078      0.000000     -1.633951
     2   1 0 1     -0.000000      0.000000      0.000000
     2   0 2 0     -3.046247      0.000000     12.719348
     2   0 1 1     -0.000000      0.000000      0.000000
     2   0 0 2     -5.956010      0.000000      0.000000


 Parallel integral file used      15 records with       0 large values

 ------------------------------------
     Number of active orbitals      8
     Number of active alpha electrons      5
     Number of active beta electrons       5
 ------------------------------------
                   NWChem Extensible Many-Electron Theory Module
                   ---------------------------------------------

              ======================================================
                   This portion of the program was automatically
                  generated by a Tensor Contraction Engine (TCE).
                  The development of this portion of the program
                 and TCE was supported by US Department of Energy,
                Office of Science, Office of Basic Energy Science.
                      TCE is a product of Battelle and PNNL.
              Please cite: S.Hirata, J.Phys.Chem.A 107, 9887 (2003).
              ======================================================

                                        H2O


            General Information
            -------------------
      Number of processors :     1
         Wavefunction type : Restricted Hartree-Fock
          No. of electrons :    10
           Alpha electrons :     5
            Beta electrons :     5
           No. of orbitals :   116
            Alpha orbitals :    58
             Beta orbitals :    58
        Alpha frozen cores :     0
         Beta frozen cores :     0
     Alpha frozen virtuals :    50
      Beta frozen virtuals :    50
         Spin multiplicity : singlet 
    Number of AO functions :    58
       Number of AO shells :    22
        Use of symmetry is : off
      Symmetry adaption is : off
         Schwarz screening : 0.10D-09

          Correlation Information
          -----------------------
          Calculation type : Coupled-cluster singles & doubles                           
   Perturbative correction : none                                                        
            Max iterations :      300
        Residual threshold : 0.10D-06
     T(0) DIIS level shift : 0.00D+00
     L(0) DIIS level shift : 0.00D+00
     T(1) DIIS level shift : 0.00D+00
     L(1) DIIS level shift : 0.00D+00
     T(R) DIIS level shift : 0.00D+00
     T(I) DIIS level shift : 0.00D+00
   CC-T/L Amplitude update :  5-th order DIIS
                I/O scheme : Global Array Library
        L-threshold :  0.10D-06
        EOM-threshold :  0.10D-06
 no EOMCCSD initial starts read in
 TCE RESTART OPTIONS
 READ_INT:   F
 WRITE_INT:  F
 READ_TA:    F
 WRITE_TA:   F
 READ_XA:    F
 WRITE_XA:   F
 READ_IN3:   F
 WRITE_IN3:  F
 SLICE:      F
 D4D5:       F
 quantumc:   T
 qrotation:  F
 pwtce:      F
 qducc:      F
 nacto:                         0
 nrotv:                         0
 nrot:                          0

            Memory Information
            ------------------
          Available GA space size is    1610609372 doubles
          Available MA space size is    1610609772 doubles

 Maximum block size supplied by input
 Maximum block size         1 doubles

 tile_dim =      1

 Block   Spin    Irrep     Size     Offset   Alpha
 -------------------------------------------------
   1    alpha     a      1 doubles       0       1
   2    alpha     a      1 doubles       1       2
   3    alpha     a      1 doubles       2       3
   4    alpha     a      1 doubles       3       4
   5    alpha     a      1 doubles       4       5
   6    beta      a      1 doubles       5       1
   7    beta      a      1 doubles       6       2
   8    beta      a      1 doubles       7       3
   9    beta      a      1 doubles       8       4
  10    beta      a      1 doubles       9       5
  11    alpha     a      1 doubles      10      11
  12    alpha     a      1 doubles      11      12
  13    alpha     a      1 doubles      12      13
  14    beta      a      1 doubles      13      11
  15    beta      a      1 doubles      14      12
  16    beta      a      1 doubles      15      13

 Global array virtual files algorithm will be used

 Parallel file system coherency ......... OK

 Integral file          = ./H2O.aoints.0
 Record size in doubles =  65536        No. of integs per rec  =  43688
 Max. records in memory =     49        Max. records in file   = 250693
 No. of bits per label  =      8        No. of bits per value  =     64


 #quartets = 3.213D+04 #integrals = 6.601D+05 #direct =  0.0% #cached =100.0%


 Fock matrix recomputed
 1-e file size   =               64
 1-e file name   = ./H2O.f1
 Cpu & wall time / sec            0.1            0.1
 4-electron integrals stored in orbital form

 v2    file size   =              666
 4-index algorithm nr.  13 is used
 imaxsize =       30
 imaxsize ichop =        0
 begin_one_electron_integrals
    1    1       -32.7356714625
    2    1        -0.7033351953
    4    1         0.1284620686
    5    1        -0.0285254086
    6    1        -0.0753505433
    7    1        -0.2077527875
    1    2        -0.7033351953
    2    2        -7.6696338560
    4    2        -0.2637684914
    5    2         0.1199046924
    6    2         0.2436713068
    7    2         0.1196625184
    3    3        -6.8865319193
    8    3         2.1284342735
    1    4         0.1284620686
    2    4        -0.2637684914
    4    4        -6.6615343901
    5    4        -0.0612272134
    6    4        -0.0231498194
    7    4         1.9431269330
    1    5        -0.0285254086
    2    5         0.1199046924
    4    5        -0.0612272134
    5    5        -5.1168713258
    6    5         2.1706840289
    7    5         0.0067383239
    1    6        -0.0753505433
    2    6         0.2436713068
    4    6        -0.0231498194
    5    6         2.1706840289
    6    6        -5.0381854810
    7    6         0.0222528163
    1    7        -0.2077527875
    2    7         0.1196625184
    4    7         1.9431269330
    5    7         0.0067383239
    6    7         0.0222528163
    7    7        -5.9299547742
    3    8         2.1284342735
    8    8        -5.2399244953
 end_one_electron_integrals
 begin_two_electron_integrals
    1    1    1    1        4.8160778411
    2    1    1    1       -0.2695853464
    2    1    2    1        0.0358249284
    3    1    3    1        0.0288398088
    4    1    1    1       -0.0885931833
    4    1    2    1        0.0032446407
    4    1    4    1        0.0215318922
    4    1    2    2       -0.0144522787
    4    1    3    3       -0.0022970536
    5    1    1    1        0.0164709022
    5    1    2    1       -0.0024680824
    5    1    4    1        0.0004673687
    5    1    5    1        0.0145157324
    5    1    2    2       -0.0003893877
    5    1    4    2        0.0006402369
    5    1    3    3        0.0014338441
    5    1    4    4        0.0014626557
    6    1    1    1        0.0516044117
    6    1    2    1       -0.0044877203
    6    1    4    1       -0.0009521606
    6    1    5    1       -0.0164639107
    6    1    6    1        0.0203134171
    6    1    2    2        0.0040670958
    6    1    4    2        0.0006808833
    6    1    5    2       -0.0164466831
    6    1    3    3        0.0025729905
    6    1    4    4        0.0026196722
    6    1    5    4       -0.0030455686
    6    1    5    5        0.0002395994
    7    1    1    1        0.1691578131
    7    1    2    1       -0.0091492889
    7    1    4    1       -0.0333639603
    7    1    5    1        0.0001012647
    7    1    6    1        0.0013690101
    7    1    7    1        0.0523484622
    7    1    2    2        0.0226707218
    7    1    4    2       -0.0263402975
    7    1    5    2       -0.0009995483
    7    1    6    2       -0.0026406365
    7    1    3    3        0.0035489153
    7    1    4    4       -0.0150138584
    7    1    5    4        0.0006277504
    7    1    6    4        0.0018900676
    7    1    5    5        0.0025880721
    7    1    6    5       -0.0014163052
    7    1    6    6        0.0031235354
    8    1    3    1       -0.0397237812
    8    1    8    1        0.0550473656
    8    1    3    2       -0.0382676800
    8    1    4    3       -0.0074826669
    8    1    5    3        0.0006780662
    8    1    6    3        0.0035261279
    8    1    7    3        0.0102849001
    2    2    1    1        1.0860067799
    2    2    2    1        0.0052978031
    2    2    2    2        0.8262648350
    3    2    3    1        0.0265863515
    3    2    3    2        0.1432243531
    4    2    1    1       -0.0045005928
    4    2    2    1       -0.0045119023
    4    2    4    1        0.0170578798
    4    2    2    2       -0.0562458353
    4    2    4    2        0.0908583651
    4    2    3    3        0.0108144715
    5    2    1    1       -0.0388843231
    5    2    2    1       -0.0008085857
    5    2    4    1        0.0010723764
    5    2    5    1        0.0134171259
    5    2    2    2       -0.0297115056
    5    2    4    2        0.0017434847
    5    2    5    2        0.0827549604
    5    2    3    3       -0.0182995440
    5    2    4    4       -0.0167779094
    6    2    1    1       -0.0494597972
    6    2    2    1        0.0003925629
    6    2    4    1        0.0012721551
    6    2    5    1       -0.0143888955
    6    2    6    1        0.0168626189
    6    2    2    2       -0.0225206209
    6    2    4    2        0.0057046601
    6    2    5    2       -0.0735985603
    6    2    6    2        0.0744004331
    6    2    3    3       -0.0257840438
    6    2    4    4       -0.0163264455
    6    2    5    4       -0.0115532353
    6    2    5    5       -0.0201901630
    7    2    1    1       -0.0266211190
    7    2    2    1        0.0052675534
    7    2    4    1       -0.0163420360
    7    2    5    1       -0.0000732439
    7    2    6    1       -0.0015610609
    7    2    7    1        0.0240122340
    7    2    2    2        0.0282715101
    7    2    4    2       -0.0601197185
    7    2    5    2        0.0018809104
    7    2    6    2       -0.0068418100
    7    2    7    2        0.0522704253
    7    2    3    3       -0.0185750326
    7    2    4    4       -0.0355515121
    7    2    5    4        0.0012709337
    7    2    6    4        0.0041744650
    7    2    5    5       -0.0088042683
    7    2    6    5        0.0124964465
    7    2    6    6       -0.0101960836
    8    2    3    1       -0.0207013451
    8    2    8    1        0.0268194638
    8    2    3    2       -0.0531513776
    8    2    8    2        0.0440054535
    8    2    4    3       -0.0037923716
    8    2    5    3        0.0017253731
    8    2    6    3        0.0060161666
    8    2    7    3        0.0115895607
    3    3    1    1        1.0473993019
    3    3    2    1        0.0033034026
    3    3    2    2        0.7398680472
    3    3    3    3        0.7586372095
    4    3    3    1        0.0053846837
    4    3    3    2        0.0229516119
    4    3    4    3        0.0363996644
    5    3    3    1       -0.0005646240
    5    3    3    2       -0.0024887220
    5    3    4    3        0.0004771455
    5    3    5    3        0.0206088225
    6    3    3    1       -0.0025622515
    6    3    3    2       -0.0102635556
    6    3    4    3       -0.0014397149
    6    3    5    3       -0.0189145571
    6    3    6    3        0.0201477606
    7    3    3    1       -0.0079244703
    7    3    3    2       -0.0214155931
    7    3    4    3       -0.0204142381
    7    3    5    3        0.0005590909
    7    3    6    3        0.0015114442
    7    3    7    3        0.0249857940
    8    3    1    1       -0.5354885282
    8    3    2    1       -0.0004525042
    8    3    4    1        0.0040073978
    8    3    5    1       -0.0012567947
    8    3    6    1       -0.0020159180
    8    3    7    1       -0.0069589801
    8    3    2    2       -0.2185573403
    8    3    4    2        0.0082974881
    8    3    5    2        0.0089208285
    8    3    6    2        0.0151302835
    8    3    7    2        0.0068730108
    8    3    3    3       -0.2129220524
    8    3    8    3        0.1650962922
    8    3    4    4       -0.1427985843
    8    3    5    4       -0.0038204836
    8    3    6    4       -0.0004127996
    8    3    7    4        0.1249214527
    8    3    5    5       -0.1059582566
    8    3    6    5        0.0992483508
    8    3    7    5        0.0009168325
    8    3    6    6       -0.1193174821
    8    3    7    6        0.0024564753
    8    3    7    7       -0.1674083907
    4    4    1    1        0.9075370363
    4    4    2    1        0.0005103636
    4    4    4    1        0.0092139510
    4    4    2    2        0.6359802432
    4    4    4    2        0.0804704405
    4    4    3    3        0.6365404227
    4    4    4    4        0.7720681551
    5    4    1    1        0.0147168686
    5    4    2    1        0.0000761470
    5    4    4    1       -0.0003403729
    5    4    5    1        0.0026662759
    5    4    2    2        0.0073159559
    5    4    4    2       -0.0023052799
    5    4    5    2        0.0098466479
    5    4    3    3        0.0069941697
    5    4    4    4        0.0048682404
    5    4    5    4        0.0194273155
    6    4    1    1        0.0038485014
    6    4    2    1        0.0006331662
    6    4    4    1       -0.0014207729
    6    4    5    1       -0.0030006167
    6    4    6    1        0.0034901911
    6    4    2    2        0.0081729537
    6    4    4    2       -0.0032235192
    6    4    5    2       -0.0137104325
    6    4    6    2        0.0119626400
    6    4    3    3        0.0027474383
    6    4    4    4        0.0045490081
    6    4    5    4       -0.0181303055
    6    4    6    4        0.0193828501
    6    4    5    5       -0.0056333498
    7    4    1    1       -0.4754166713
    7    4    2    1        0.0013017336
    7    4    4    1       -0.0039618227
    7    4    5    1       -0.0012904168
    7    4    6    1       -0.0019041160
    7    4    7    1        0.0029681530
    7    4    2    2       -0.2127034637
    7    4    4    2        0.0135414213
    7    4    5    2        0.0062723478
    7    4    6    2        0.0143103442
    7    4    7    2        0.0168872489
    7    4    3    3       -0.1843079170
    7    4    4    4       -0.0999602323
    7    4    5    4       -0.0045744234
    7    4    6    4        0.0038013761
    7    4    7    4        0.2121663579
    7    4    5    5       -0.1098795641
    7    4    6    5        0.0903600007
    7    4    6    6       -0.1211466356
    8    4    3    1       -0.0024702820
    8    4    8    1        0.0025638160
    8    4    3    2        0.0048646711
    8    4    8    2        0.0033420641
    8    4    4    3       -0.0016936081
    8    4    5    3       -0.0002774728
    8    4    6    3        0.0003914993
    8    4    7    3        0.0156695525
    8    4    8    4        0.0184184738
    5    5    1    1        0.6853076781
    5    5    2    1        0.0018236501
    5    5    4    1       -0.0015434047
    5    5    5    1        0.0008003429
    5    5    2    2        0.5294206550
    5    5    4    2       -0.0002930656
    5    5    5    2        0.0140574629
    5    5    3    3        0.4929336464
    5    5    4    4        0.4576989161
    5    5    5    4        0.0036749750
    5    5    5    5        0.4983394300
    6    5    1    1       -0.4259615984
    6    5    2    1       -0.0017536573
    6    5    4    1        0.0010402837
    6    5    5    1       -0.0014737064
    6    5    6    1       -0.0015381596
    6    5    2    2       -0.2492831052
    6    5    4    2       -0.0101441838
    6    5    5    2        0.0271521800
    6    5    6    2        0.0082760764
    6    5    3    3       -0.2264498082
    6    5    4    4       -0.2071825494
    6    5    5    4       -0.0061050487
    6    5    6    4       -0.0066496119
    6    5    5    5       -0.0607545185
    6    5    6    5        0.2260721062
    7    5    1    1       -0.0024947180
    7    5    2    1        0.0001119249
    7    5    4    1        0.0001316745
    7    5    5    1       -0.0042836774
    7    5    6    1        0.0050308780
    7    5    7    1       -0.0003405035
    7    5    2    2        0.0006028606
    7    5    4    2        0.0014205526
    7    5    5    2       -0.0138299141
    7    5    6    2        0.0139663402
    7    5    7    2       -0.0017814534
    7    5    3    3       -0.0000280320
    7    5    4    4       -0.0009022177
    7    5    5    4       -0.0109220859
    7    5    6    4        0.0123015751
    7    5    7    4        0.0010276996
    7    5    5    5       -0.0028398469
    7    5    6    5       -0.0022327790
    7    5    7    5        0.0138018523
    7    5    6    6       -0.0046969265
    8    5    3    1        0.0004889970
    8    5    8    1       -0.0007508504
    8    5    3    2        0.0042440377
    8    5    8    2       -0.0006227920
    8    5    4    3        0.0001891851
    8    5    5    3       -0.0046619041
    8    5    6    3        0.0070315148
    8    5    7    3       -0.0000611440
    8    5    8    4        0.0007358989
    8    5    8    5        0.0103464989
    6    6    1    1        0.7272879048
    6    6    2    1        0.0016339377
    6    6    4    1       -0.0017767326
    6    6    5    1        0.0034310019
    6    6    6    1       -0.0024120763
    6    6    2    2        0.5270873493
    6    6    4    2        0.0007908759
    6    6    5    2        0.0204031376
    6    6    6    2       -0.0279417139
    6    6    3    3        0.4921064547
    6    6    4    4        0.4544829543
    6    6    5    4        0.0027658799
    6    6    6    4       -0.0064285873
    6    6    5    5        0.5100955540
    6    6    6    5       -0.0421099946
    6    6    6    6        0.5387749095
    7    6    1    1       -0.0068260960
    7    6    2    1       -0.0009490920
    7    6    4    1        0.0019887702
    7    6    5    1        0.0048991694
    7    6    6    1       -0.0055549996
    7    6    7    1       -0.0028881279
    7    6    2    2       -0.0114546453
    7    6    4    2        0.0087878605
    7    6    5    2        0.0152957528
    7    6    6    2       -0.0148233959
    7    6    7    2       -0.0050620798
    7    6    3    3       -0.0019428417
    7    6    4    4        0.0070908695
    7    6    5    4        0.0131134699
    7    6    6    4       -0.0144738582
    7    6    7    4        0.0058087645
    7    6    5    5       -0.0026603312
    7    6    6    5       -0.0011279942
    7    6    7    5       -0.0145060864
    7    6    6    6       -0.0020762921
    7    6    7    6        0.0174169179
    8    6    3    1        0.0025421110
    8    6    8    1       -0.0036357472
    8    6    3    2        0.0107138906
    8    6    8    2       -0.0041674220
    8    6    4    3        0.0018863030
    8    6    5    3        0.0088473514
    8    6    6    3       -0.0103191788
    8    6    7    3       -0.0011743691
    8    6    8    4        0.0005588273
    8    6    8    5       -0.0075359921
    8    6    8    6        0.0106202140
    7    7    1    1        1.0490153376
    7    7    2    1       -0.0033547810
    7    7    4    1        0.0091390102
    7    7    5    1        0.0020721292
    7    7    6    1        0.0036940339
    7    7    7    1       -0.0138427318
    7    7    2    2        0.6290228181
    7    7    4    2        0.0710196130
    7    7    5    2       -0.0171976345
    7    7    6    2       -0.0180624554
    7    7    7    2       -0.0347965842
    7    7    3    3        0.6332076014
    7    7    4    4        0.7533141015
    7    7    5    4        0.0050583302
    7    7    6    4        0.0058970761
    7    7    7    4       -0.0976201101
    7    7    5    5        0.4506953637
    7    7    6    5       -0.2121878532
    7    7    7    5       -0.0008677909
    7    7    6    6        0.4526303200
    7    7    7    6        0.0076577280
    7    7    7    7        0.7920814212
    8    7    3    1        0.0075384902
    8    7    8    1       -0.0102696240
    8    7    3    2        0.0247386232
    8    7    8    2       -0.0068377101
    8    7    4    3        0.0276013869
    8    7    5    3        0.0001589865
    8    7    6    3       -0.0013551141
    8    7    7    3       -0.0168409337
    8    7    8    4       -0.0022791873
    8    7    8    5        0.0006538067
    8    7    8    6        0.0022498723
    8    7    8    7        0.0297989443
    8    8    1    1        1.0301305570
    8    8    2    1       -0.0014755238
    8    8    4    1       -0.0044291409
    8    8    5    1        0.0018948535
    8    8    6    1        0.0028425044
    8    8    7    1        0.0070417177
    8    8    2    2        0.6312213074
    8    8    4    2        0.0107077421
    8    8    5    2       -0.0139614593
    8    8    6    2       -0.0211526757
    8    8    7    2       -0.0128755944
    8    8    3    3        0.6506682730
    8    8    8    3       -0.1809973767
    8    8    4    4        0.5684014205
    8    8    5    4        0.0060458735
    8    8    6    4        0.0027058197
    8    8    7    4       -0.1453405276
    8    8    5    5        0.4405279363
    8    8    6    5       -0.1866647264
    8    8    7    5       -0.0004325219
    8    8    6    6        0.4411202080
    8    8    7    6       -0.0006000256
    8    8    7    7        0.5831322764
    8    8    8    8        0.6012051988
 end_two_electron_integrals
 enrep_tce =    6.7592641732894592     
  EHF(A)             =       -75.82303504
  EHF(total)         =       -75.82303504
  Shift (HFtot-HFA)  =         0.00000000
 Cpu & wall time / sec            0.9            1.0
 T1-number-of-tasks                   15

 t1 file size   =               15
 t1 file name   = ./H2O.t1
 t1 file handle =       -998
 T2-number-of-boxes                  315

 t2 file size   =              315
 t2 file name   = ./H2O.t2
 t2 file handle =       -996
CCSD iterations
 ---------------------------------------------------------
 Iter          Residuum       Correlation     Cpu    Wall 
 ---------------------------------------------------------
NEW TASK SCHEDULING
CCSD_T1_NTS --- OK
CCSD_T2_NTS --- OK
    1   0.6590110500547  -0.2763613398672     1.7     2.6
    2   1.0279888322284   0.0366003880003     1.9     2.7
    3   1.6128668741456  -0.4859283755951     1.8     2.6
    4   2.5554016626221   0.3203455064068     1.8     2.6
    5   3.8368650914408  -0.8882565705036     1.7     2.6
 MICROCYCLE DIIS UPDATE:                    5                    5
    6   0.0221543156176  -0.1683923261365     1.9     2.6
    7   0.0332207611664  -0.1679800096343     1.9     2.6
    8   0.0609519542109  -0.1721990913565     1.8     2.6
    9   0.1183390611549  -0.1666774619773     1.8     2.6
   10   0.2340689290634  -0.1752341135402     1.8     2.7
 MICROCYCLE DIIS UPDATE:                   10                    5
   11   0.0017083871797  -0.1701681107884     1.8     2.6
   12   0.0015527670365  -0.1703564247439     1.8     2.6
   13   0.0021515814101  -0.1699104427276     1.7     2.6
   14   0.0036120453563  -0.1706054495354     1.8     2.6
   15   0.0064414249854  -0.1695122860819     1.8     2.6
 MICROCYCLE DIIS UPDATE:                   15                    5
   16   0.0001658774614  -0.1701678153720     1.9     2.6
   17   0.0001132284605  -0.1701766354378     2.0     2.6
   18   0.0001621852971  -0.1702171619727     1.7     2.6
   19   0.0002835453449  -0.1701654873676     1.8     2.6
   20   0.0005162705748  -0.1702512783486     1.8     2.6
 MICROCYCLE DIIS UPDATE:                   20                    5
   21   0.0000215609053  -0.1701986547587     1.8     2.6
   22   0.0000226132146  -0.1702019980756     1.8     2.6
   23   0.0000350360936  -0.1701956878807     1.8     2.6
   24   0.0000633228794  -0.1702056818507     1.8     2.6
   25   0.0001200145354  -0.1701898629456     1.7     2.6
 MICROCYCLE DIIS UPDATE:                   25                    5
   26   0.0000020979695  -0.1701994687702     1.8     2.6
   27   0.0000012085191  -0.1701995353283     1.7     2.6
   28   0.0000016945307  -0.1701999544836     1.9     2.6
   29   0.0000029530130  -0.1701994155794     1.9     2.6
   30   0.0000054170946  -0.1702003026977     1.7     2.6
 MICROCYCLE DIIS UPDATE:                   30                    5
   31   0.0000002252899  -0.1701997578886     1.8     2.6
   32   0.0000002300026  -0.1701997978506     1.9     2.6
   33   0.0000003377294  -0.1701997294421     1.7     2.6
   34   0.0000005938761  -0.1701998371314     1.7     2.6
   35   0.0000011101375  -0.1701996664808     1.8     2.6
 MICROCYCLE DIIS UPDATE:                   35                    5
   36   0.0000000258529  -0.1701997713375     1.9     2.6
 -----------------------------------------------------------------
 Iterations converged
 CCSD correlation energy / hartree =        -0.170199771337479
 CCSD total energy / hartree       =       -75.993234812631982

 Singles contributions

 Doubles contributions
     6a   (alpha)     6a   (beta ) ---     5a   (alpha)     5a   (beta )       -0.4510769264
     6a   (alpha)     7a   (beta ) ---     5a   (alpha)     4a   (beta )       -0.0292561896
     6a   (alpha)     8a   (beta ) ---     5a   (alpha)     3a   (beta )       -0.0291117862
     7a   (alpha)     8a   (alpha) ---     3a   (alpha)     4a   (alpha)        0.0321047401
     7a   (alpha)     6a   (beta ) ---     4a   (alpha)     5a   (beta )       -0.0292561896
     7a   (alpha)     7a   (beta ) ---     4a   (alpha)     4a   (beta )       -0.0917512267
     7a   (alpha)     8a   (beta ) ---     4a   (alpha)     3a   (beta )       -0.0418727024
     8a   (alpha)     6a   (beta ) ---     3a   (alpha)     5a   (beta )       -0.0291117862
     8a   (alpha)     7a   (beta ) ---     3a   (alpha)     4a   (beta )       -0.0418727024
     8a   (alpha)     8a   (beta ) ---     3a   (alpha)     3a   (beta )       -0.0587520380
 Ground state specification:
 exp(T)|Ref>~(1+T)|Ref>
 ------- a(p)+/a(q) strings ----------

 singles norm

 doubles norm

 Reference string
  0.91155377649950842      :(1a)+ (2a)+ (3a)+ (4a)+ (5a)+ (1b)+ (2b)+ (3b)+ (4b)+ (5b)+ |0>

 Singles strings

 Doubles strings
 -0.41118087570980755      :(6a)+ (6b)+ (5b)  (5a)  (1a)+ (2a)+ (3a)+ (4a)+ (5a)+ (1b)+ (2b)+ (3b)+ (4b)+ (5b)+ |0>
 -------------------------------------

 Parallel integral file used      16 records with       0 large values


 Task  times  cpu:       66.4s     wall:       96.1s


                                NWChem Input Module
                                -------------------


 Summary of allocated global arrays
-----------------------------------
  No active global arrays


MA_summarize_allocated_blocks: starting scan ...
MA_summarize_allocated_blocks: scan completed: 0 heap blocks, 0 stack blocks
MA usage statistics:

	allocation statistics:
					      heap	     stack
					      ----	     -----
	current number of blocks	         0	         0
	maximum number of blocks	        18	        42
	current total bytes		         0	         0
	maximum total bytes		  25775960	  38234456
	maximum total K-bytes		     25776	     38235
	maximum total M-bytes		        26	        39


                                     CITATION
                                     --------
                Please cite the following reference when publishing
                           results obtained with NWChem:

          E. Apra, E. J. Bylaska, W. A. de Jong, N. Govind, K. Kowalski,
       T. P. Straatsma, M. Valiev, H. J. J. van Dam, Y. Alexeev, J. Anchell,
       V. Anisimov, F. W. Aquino, R. Atta-Fynn, J. Autschbach, N. P. Bauman,
     J. C. Becca, D. E. Bernholdt, K. Bhaskaran-Nair, S. Bogatko, P. Borowski,
         J. Boschen, J. Brabec, A. Bruner, E. Cauet, Y. Chen, G. N. Chuev,
      C. J. Cramer, J. Daily, M. J. O. Deegan, T. H. Dunning Jr., M. Dupuis,
   K. G. Dyall, G. I. Fann, S. A. Fischer, A. Fonari, H. Fruchtl, L. Gagliardi,
      J. Garza, N. Gawande, S. Ghosh, K. Glaesemann, A. W. Gotz, J. Hammond,
       V. Helms, E. D. Hermes, K. Hirao, S. Hirata, M. Jacquelin, L. Jensen,
   B. G. Johnson, H. Jonsson, R. A. Kendall, M. Klemm, R. Kobayashi, V. Konkov,
      S. Krishnamoorthy, M. Krishnan, Z. Lin, R. D. Lins, R. J. Littlefield,
      A. J. Logsdail, K. Lopata, W. Ma, A. V. Marenich, J. Martin del Campo,
   D. Mejia-Rodriguez, J. E. Moore, J. M. Mullin, T. Nakajima, D. R. Nascimento,
    J. A. Nichols, P. J. Nichols, J. Nieplocha, A. Otero-de-la-Roza, B. Palmer,
    A. Panyala, T. Pirojsirikul, B. Peng, R. Peverati, J. Pittner, L. Pollack,
   R. M. Richard, P. Sadayappan, G. C. Schatz, W. A. Shelton, D. W. Silverstein,
   D. M. A. Smith, T. A. Soares, D. Song, M. Swart, H. L. Taylor, G. S. Thomas,
            V. Tipparaju, D. G. Truhlar, K. Tsemekhman, T. Van Voorhis,
      A. Vazquez-Mayagoitia, P. Verma, O. Villa, A. Vishnu, K. D. Vogiatzis,
        D. Wang, J. H. Weare, M. J. Williamson, T. L. Windus, K. Wolinski,
        A. T. Wong, Q. Wu, C. Yang, Q. Yu, M. Zacharias, Z. Zhang, Y. Zhao,
                                and R. J. Harrison
                        "NWChem: Past, present, and future
                         J. Chem. Phys. 152, 184102 (2020)
                               doi:10.1063/5.0004997

                                      AUTHORS
                                      -------
  E. Apra, E. J. Bylaska, N. Govind, K. Kowalski, M. Valiev, D. Mejia-Rodriguez,
       A. Kunitsa, N. P. Bauman, A. Panyala, W. A. de Jong, T. P. Straatsma,
        H. J. J. van Dam, D. Wang, T. L. Windus, J. Hammond, J. Autschbach,
    K. Bhaskaran-Nair, J. Brabec, K. Lopata, S. A. Fischer, S. Krishnamoorthy,
     M. Jacquelin, W. Ma, M. Klemm, O. Villa, Y. Chen, V. Anisimov, F. Aquino,
    S. Hirata, M. T. Hackler, Eric Hermes, L. Jensen, J. E. Moore, J. C. Becca,
      V. Konjkov, T. Risthaus, M. Malagoli, A. Marenich, A. Otero-de-la-Roza,
        J. Mullin, P. Nichols, R. Peverati, J. Pittner, Y. Zhao, P.-D. Fan,
        A. Fonari, M. J. Williamson, R. J. Harrison, J. R. Rehr, M. Dupuis,
     D. Silverstein, D. M. A. Smith, J. Nieplocha, V. Tipparaju, M. Krishnan,
     B. E. Van Kuiken, A. Vazquez-Mayagoitia, M. Swart, Q. Wu, T. Van Voorhis,
     A. A. Auer, M. Nooijen, L. D. Crosby, E. Brown, G. Cisneros, G. I. Fann,
   H. Fruchtl, J. Garza, K. Hirao, R. A. Kendall, J. A. Nichols, K. Tsemekhman,
    K. Wolinski, J. Anchell, D. E. Bernholdt, P. Borowski, T. Clark, D. Clerc,
   H. Dachsel, M. J. O. Deegan, K. Dyall, D. Elwood, E. Glendening, M. Gutowski,
   A. C. Hess, J. Jaffe, B. G. Johnson, J. Ju, R. Kobayashi, R. Kutteh, Z. Lin,
   R. Littlefield, X. Long, B. Meng, T. Nakajima, S. Niu, L. Pollack, M. Rosing,
   K. Glaesemann, G. Sandrone, M. Stave, H. Taylor, G. Thomas, J. H. van Lenthe,
                               A. T. Wong, Z. Zhang.

 Total times  cpu:       71.2s     wall:      104.8s
