 argument  1 = input.nw
  NWChem w/ OpenMP: maximum threads =    1



============================== echo of input deck ==============================
 echo
 start H2O
 title "H2O"

 memory total 24 gb

 geometry units bohr
 symmetry c1
        O  0.00000000  0.00000000  0.00000000
        H  0.00000000  3.7790725  0.00000000
        H  1.72558000 -0.64860000  0.00000000
 end

 basis spherical
   * library cc-pVTZ
 end

 mcscf
   active  8
   actelec 10
   multiplicity 1
   maxiter 40
   vectors input h2o.mos
   vectors output h2o.mos
 end

 task mcscf

 scf
   vectors input h2o.mos
   vectors output h2o-trash.mos
   noscf
 end

 tce
   2eorb
   2emet 13
   ccsd
   maxiter 300
 end

 set tce:print_integrals T
 set tce:qorb 8
 set tce:qela 5
 set tce:qelb 5

# set tce:qducc T
# set tce:nactv 3
# set tce:nonhf T
# set tce:ducc_model 6

 set tce:printtol 0.02

 task tce
================================================================================


                                         
                                         


             Northwest Computational Chemistry Package (NWChem) 7.0.1
             --------------------------------------------------------


                    Environmental Molecular Sciences Laboratory
                       Pacific Northwest National Laboratory
                                Richland, WA 99352

                              Copyright (c) 1994-2020
                       Pacific Northwest National Laboratory
                            Battelle Memorial Institute

             NWChem is an open-source computational chemistry package
                        distributed under the terms of the
                      Educational Community License (ECL) 2.0
             A copy of the license is included with this distribution
                              in the LICENSE.TXT file

                                  ACKNOWLEDGMENT
                                  --------------

            This software and its documentation were developed at the
            EMSL at Pacific Northwest National Laboratory, a multiprogram
            national laboratory, operated for the U.S. Department of Energy
            by Battelle under Contract Number DE-AC05-76RL01830. Support
            for this work was provided by the Department of Energy Office
            of Biological and Environmental Research, Office of Basic
            Energy Sciences, and the Office of Advanced Scientific Computing.


           Job information
           ---------------

    hostname        = WE46210
    program         = /home/baum612/code/nwchem/bin/LINUX64/nwchem
    date            = Wed Mar  6 09:44:45 2024

    compiled        = Fri_Feb_16_11:09:52_2024
    source          = /home/baum612/code/nwchem
    nwchem branch   = 7.0.0
    nwchem revision = nwchem_on_git-4191-g39d87d64de
    ga revision     = 5.8.1
    use scalapack   = F
    input           = input.nw
    prefix          = H2O.
    data base       = ./H2O.db
    status          = startup
    nproc           =        1
    time left       =     -1s



           Memory information
           ------------------

    heap     =  805306366 doubles =   6144.0 Mbytes
    stack    =  805306363 doubles =   6144.0 Mbytes
    global   = 1610612736 doubles =  12288.0 Mbytes (distinct from heap & stack)
    total    = 3221225465 doubles =  24576.0 Mbytes
    verify   = yes
    hardfail = no 


           Directory information
           ---------------------

  0 permanent = .
  0 scratch   = .




                                NWChem Input Module
                                -------------------


                                        H2O
                                        ---
 Turning off AUTOSYM since
 SYMMETRY directive was detected!


          ------
          auto-z
          ------
  autoz: The atoms group into disjoint clusters
 cluster   1:    1    3
 cluster   2:    2
 Connecting clusters   1   2 via atoms    1    2 r = 2.00
  autoz: regenerating connections with new bonds
  no constraints, skipping    0.0000000000000000     
  no constraints, skipping    0.0000000000000000     


                             Geometry "geometry" -> ""
                             -------------------------

 Output coordinates in a.u. (scale by  1.000000000 to convert to a.u.)

  No.       Tag          Charge          X              Y              Z
 ---- ---------------- ---------- -------------- -------------- --------------
    1 O                    8.0000    -0.17255800    -0.31304725     0.00000000
    2 H                    1.0000    -0.17255800     3.46602525     0.00000000
    3 H                    1.0000     1.55302200    -0.96164725     0.00000000

      Atomic Mass 
      ----------- 

      O                 15.994910
      H                  1.007825


 Effective nuclear repulsion energy (a.u.)       6.6670462827

            Nuclear Dipole moment (a.u.) 
            ----------------------------
        X                 Y               Z
 ---------------- ---------------- ----------------
    -0.0000000000     0.0000000000     0.0000000000



                                Z-matrix (autoz)
                                -------- 

 Units are Angstrom for bonds and degrees for angles

      Type          Name      I     J     K     L     M      Value
      ----------- --------  ----- ----- ----- ----- ----- ----------
    1 Stretch                  1     2                       1.99980
    2 Stretch                  1     3                       0.97551
    3 Bend                     2     1     3               110.59992


            XYZ format geometry
            -------------------
     3
 geometry
 O                    -0.09131377    -0.16565748     0.00000000
 H                    -0.09131377     1.83414171     0.00000000
 H                     0.82182391    -0.50888185     0.00000000

 ==============================================================================
                                internuclear distances
 ------------------------------------------------------------------------------
       center one      |      center two      | atomic units |       a.u.
 ------------------------------------------------------------------------------
    3 H                |   1 O                |     1.84345  |     1.84345
 ------------------------------------------------------------------------------
                         number of included internuclear distances:          1
 ==============================================================================





 Summary of "ao basis" -> "" (spherical)
 ------------------------------------------------------------------------------
       Tag                 Description            Shells   Functions and Types
 ---------------- ------------------------------  ------  ---------------------
 *                          cc-pVTZ                   on all atoms 


                      Basis "ao basis" -> "ao basis" (spherical)
                      -----
  O (Oxygen)
  ----------
            Exponent  Coefficients 
       -------------- ---------------------------------------------------------
  1 S  1.53300000E+04  0.000508
  1 S  2.29900000E+03  0.003929
  1 S  5.22400000E+02  0.020243
  1 S  1.47300000E+02  0.079181
  1 S  4.75500000E+01  0.230687
  1 S  1.67600000E+01  0.433118
  1 S  6.20700000E+00  0.350260
  1 S  6.88200000E-01 -0.008154

  2 S  1.53300000E+04 -0.000115
  2 S  2.29900000E+03 -0.000895
  2 S  5.22400000E+02 -0.004636
  2 S  1.47300000E+02 -0.018724
  2 S  4.75500000E+01 -0.058463
  2 S  1.67600000E+01 -0.136463
  2 S  6.20700000E+00 -0.175740
  2 S  6.88200000E-01  0.603418

  3 S  1.75200000E+00  1.000000

  4 S  2.38400000E-01  1.000000

  5 P  3.44600000E+01  0.015928
  5 P  7.74900000E+00  0.099740
  5 P  2.28000000E+00  0.310492

  6 P  7.15600000E-01  1.000000

  7 P  2.14000000E-01  1.000000

  8 D  2.31400000E+00  1.000000

  9 D  6.45000000E-01  1.000000

 10 F  1.42800000E+00  1.000000

  H (Hydrogen)
  ------------
            Exponent  Coefficients 
       -------------- ---------------------------------------------------------
  1 S  3.38700000E+01  0.006068
  1 S  5.09500000E+00  0.045308
  1 S  1.15900000E+00  0.202822

  2 S  3.25800000E-01  1.000000

  3 S  1.02700000E-01  1.000000

  4 P  1.40700000E+00  1.000000

  5 P  3.88000000E-01  1.000000

  6 D  1.05700000E+00  1.000000



 Summary of "ao basis" -> "ao basis" (spherical)
 ------------------------------------------------------------------------------
       Tag                 Description            Shells   Functions and Types
 ---------------- ------------------------------  ------  ---------------------
 O                          cc-pVTZ                 10       30   4s3p2d1f
 H                          cc-pVTZ                  6       14   3s2p1d



                            NWChem Direct MCSCF Module
                            --------------------------


                                        H2O


     -----------------------------------
       Basis functions:             58
       Inactive shells:              0
       Active shells:                8
       Active electrons:            10
       Symmetry:                    a       
       Multiplicity:                 1
       Orbital rotations:          400
     -----------------------------------

     -----------------------------------
       E2 extrapolation:             F
       Conjugacy:                    T
       Micro CI relax:               T
       Canonical orbitals:           T
       Maximum iterations:          40
       Converge threshold:    1.00E-04
       Conjugacy resets:            20
       Initial levelshift:        0.10
     -----------------------------------

 Loading old vectors from job with title :

H2O


   input molecular orbitals = ./h2o.mos
  output molecular orbtials = ./h2o.mos

       No. of determinants:          3136


  Starting Orbital Energies
   -20.604296    -1.300545    -0.665720    -0.540554    -0.445183    -0.123658
    -0.026296    -0.013492     0.300238     0.377418     0.611382     0.772619
     0.792745     0.861965     0.890307     0.931876     0.971028     1.323990
     1.369437     1.738004     1.864480     2.032255     2.045284     2.175168
     2.624840     2.780755     3.416857     3.425007     3.441795     3.442861
     3.469796     3.537396     3.563285     3.641173     3.792557     3.880883
     3.940113     3.969425     4.040035     4.085518     4.236874     4.405001
     4.485451     4.736866     5.143772     5.559142     5.597715     5.807401
     5.845093     6.735803     6.804326     6.835107     6.840763     7.008140
     7.064031     7.126333     7.546402    10.860401

  Orbital Symmetry Irreps
a    a    a    a    a    a    a    a    a    a    a    a    a    a    a   
a    a    a    a    a    a    a    a    a    a    a    a    a    a    a   
a    a    a    a    a    a    a    a    a    a    a    a    a    a    a   
a    a    a    a    a    a    a    a    a    a    a    a    a   

 Integral file          = ./H2O.aoints.0
 Record size in doubles =  65536        No. of integs per rec  =  43688
 Max. records in memory =     49        Max. records in file   = 248747
 No. of bits per label  =      8        No. of bits per value  =     64


 #quartets = 3.208D+04 #integrals = 6.523D+05 #direct =  0.0% #cached =100.0%




          %%%%% MacroIteration   1 %%%%%


          Number of sigma calls:       24
                       o<<<<< (aa):             0.00
                       o<<<<< (bb):             0.00
                       o<<<<< (ab):             0.08
                       o<<<<< (total)           0.09
                       o<<<<< (aa) ff           0.00
                       o<<<<< (aa) gop          0.00
                       o<<<<< (aa) dot          0.00
                       o<<<<< (ab) str          0.00
                       o<<<<< (ab) gath         0.00
                       o<<<<< (ab) dotab        0.00
                       o<<<<< (ab) scat         0.00
                       o<<<<< (ab) sync         0.00
                       o<<<<< Density           0.01
                       o<<<<< Density one       0.00
                       o<<<<< Density two       0.00
                       o<<<<< Density ab        0.01
                       o<<<<< Spin adapt        0.55
                       o<<<<< Symm adapt        0.00

                       o<<<<< (ab) max sync:      0.00

           >>>| Valence CI:            -82.655506212529
           >>>| MCSCF energy:          -75.988459929831
           >>>| Gradient norm:          0.376355378D-01

                              ----- Line search ------

        step       energy         lsg     num-lsg   num-lsh   lsrat    time
      ------- ---------------- --------- --------- --------- ------- --------
       0.0000     -75.98845993 -2.97D-04  0.00D+00  0.00D+00 0.0D+00      1.3

          Number of sigma calls:       24
                       o<<<<< (aa):             0.00
                       o<<<<< (bb):             0.00
                       o<<<<< (ab):             0.07
                       o<<<<< (total)           0.08
                       o<<<<< (aa) ff           0.00
                       o<<<<< (aa) gop          0.00
                       o<<<<< (aa) dot          0.00
                       o<<<<< (ab) str          0.00
                       o<<<<< (ab) gath         0.00
                       o<<<<< (ab) dotab        0.00
                       o<<<<< (ab) scat         0.00
                       o<<<<< (ab) sync         0.00
                       o<<<<< Density           0.01
                       o<<<<< Density one       0.00
                       o<<<<< Density two       0.00
                       o<<<<< Density ab        0.01
                       o<<<<< Spin adapt        0.57
                       o<<<<< Symm adapt        0.00

                       o<<<<< (ab) max sync:      0.00
       1.0000     -75.98863460 -5.15D-05 -5.19D-05  2.45D-04 1.7D-01      2.1

          Number of sigma calls:       22
                       o<<<<< (aa):             0.00
                       o<<<<< (bb):             0.01
                       o<<<<< (ab):             0.07
                       o<<<<< (total)           0.08
                       o<<<<< (aa) ff           0.00
                       o<<<<< (aa) gop          0.00
                       o<<<<< (aa) dot          0.00
                       o<<<<< (ab) str          0.00
                       o<<<<< (ab) gath         0.00
                       o<<<<< (ab) dotab        0.00
                       o<<<<< (ab) scat         0.00
                       o<<<<< (ab) sync         0.00
                       o<<<<< Density           0.01
                       o<<<<< Density one       0.00
                       o<<<<< Density two       0.00
                       o<<<<< Density ab        0.01
                       o<<<<< Spin adapt        0.49
                       o<<<<< Symm adapt        0.00

                       o<<<<< (ab) max sync:      0.00
       1.2099     -75.98863995  5.90D-07  5.73D-07  2.48D-04 2.0D-03      2.8
     --- Orbitals canonicalized ---



          %%%%% MacroIteration   2 %%%%%


          Number of sigma calls:       22
                       o<<<<< (aa):             0.00
                       o<<<<< (bb):             0.00
                       o<<<<< (ab):             0.06
                       o<<<<< (total)           0.07
                       o<<<<< (aa) ff           0.00
                       o<<<<< (aa) gop          0.00
                       o<<<<< (aa) dot          0.00
                       o<<<<< (ab) str          0.00
                       o<<<<< (ab) gath         0.00
                       o<<<<< (ab) dotab        0.00
                       o<<<<< (ab) scat         0.00
                       o<<<<< (ab) sync         0.00
                       o<<<<< Density           0.01
                       o<<<<< Density one       0.00
                       o<<<<< Density two       0.00
                       o<<<<< Density ab        0.00
                       o<<<<< Spin adapt        0.56
                       o<<<<< Symm adapt        0.00

                       o<<<<< (ab) max sync:      0.00

           >>>| Valence CI:            -82.655686235294
           >>>| MCSCF energy:          -75.988639952596
           >>>| Gradient norm:          0.668453904D-02
     --- Warning:    3 Hessian diagonals < 0.05 ---
     --- Conjugacy reset ---

                              ----- Line search ------

        step       energy         lsg     num-lsg   num-lsh   lsrat    time
      ------- ---------------- --------- --------- --------- ------- --------
       0.0000     -75.98863995 -1.21D-05  0.00D+00  0.00D+00 0.0D+00      3.6

          Number of sigma calls:       20
                       o<<<<< (aa):             0.00
                       o<<<<< (bb):             0.01
                       o<<<<< (ab):             0.07
                       o<<<<< (total)           0.07
                       o<<<<< (aa) ff           0.00
                       o<<<<< (aa) gop          0.00
                       o<<<<< (aa) dot          0.00
                       o<<<<< (ab) str          0.00
                       o<<<<< (ab) gath         0.00
                       o<<<<< (ab) dotab        0.00
                       o<<<<< (ab) scat         0.00
                       o<<<<< (ab) sync         0.00
                       o<<<<< Density           0.01
                       o<<<<< Density one       0.00
                       o<<<<< Density two       0.00
                       o<<<<< Density ab        0.01
                       o<<<<< Spin adapt        0.47
                       o<<<<< Symm adapt        0.00

                       o<<<<< (ab) max sync:      0.00
       1.0000     -75.98864710 -2.23D-06 -2.23D-06  9.83D-06 1.8D-01      4.3

          Number of sigma calls:       17
                       o<<<<< (aa):             0.00
                       o<<<<< (bb):             0.00
                       o<<<<< (ab):             0.06
                       o<<<<< (total)           0.07
                       o<<<<< (aa) ff           0.00
                       o<<<<< (aa) gop          0.00
                       o<<<<< (aa) dot          0.00
                       o<<<<< (ab) str          0.00
                       o<<<<< (ab) gath         0.00
                       o<<<<< (ab) dotab        0.00
                       o<<<<< (ab) scat         0.00
                       o<<<<< (ab) sync         0.00
                       o<<<<< Density           0.01
                       o<<<<< Density one       0.00
                       o<<<<< Density two       0.00
                       o<<<<< Density ab        0.00
                       o<<<<< Spin adapt        0.36
                       o<<<<< Symm adapt        0.00

                       o<<<<< (ab) max sync:      0.00
       1.2269     -75.98864735  3.25D-09  3.14D-09  9.85D-06 2.7D-04      4.8



          %%%%% MacroIteration   3 %%%%%


          Number of sigma calls:        1
                       o<<<<< (aa):             0.00
                       o<<<<< (bb):             0.00
                       o<<<<< (ab):             0.01
                       o<<<<< (total)           0.01
                       o<<<<< (aa) ff           0.00
                       o<<<<< (aa) gop          0.00
                       o<<<<< (aa) dot          0.00
                       o<<<<< (ab) str          0.00
                       o<<<<< (ab) gath         0.00
                       o<<<<< (ab) dotab        0.00
                       o<<<<< (ab) scat         0.00
                       o<<<<< (ab) sync         0.00
                       o<<<<< Density           0.01
                       o<<<<< Density one       0.00
                       o<<<<< Density two       0.00
                       o<<<<< Density ab        0.01
                       o<<<<< Spin adapt        0.00
                       o<<<<< Symm adapt        0.00

                       o<<<<< (ab) max sync:      0.00

           >>>| Valence CI:            -82.655693637319
           >>>| MCSCF energy:          -75.988647354621
           >>>| Gradient norm:          0.156464671D-02
     --- Warning:    3 Hessian diagonals < 0.05 ---

                              ----- Line search ------

        step       energy         lsg     num-lsg   num-lsh   lsrat    time
      ------- ---------------- --------- --------- --------- ------- --------
       0.0000     -75.98864735 -4.93D-07  0.00D+00  0.00D+00 0.0D+00      4.9

          Number of sigma calls:       16
                       o<<<<< (aa):             0.00
                       o<<<<< (bb):             0.00
                       o<<<<< (ab):             0.05
                       o<<<<< (total)           0.06
                       o<<<<< (aa) ff           0.00
                       o<<<<< (aa) gop          0.00
                       o<<<<< (aa) dot          0.00
                       o<<<<< (ab) str          0.00
                       o<<<<< (ab) gath         0.00
                       o<<<<< (ab) dotab        0.00
                       o<<<<< (ab) scat         0.00
                       o<<<<< (ab) sync         0.00
                       o<<<<< Density           0.01
                       o<<<<< Density one       0.00
                       o<<<<< Density two       0.00
                       o<<<<< Density ab        0.01
                       o<<<<< Spin adapt        0.46
                       o<<<<< Symm adapt        0.00

                       o<<<<< (ab) max sync:      0.00
       1.0000     -75.98864764 -8.09D-08 -8.09D-08  4.12D-07 1.6D-01      5.6

          Number of sigma calls:       13
                       o<<<<< (aa):             0.00
                       o<<<<< (bb):             0.00
                       o<<<<< (ab):             0.04
                       o<<<<< (total)           0.05
                       o<<<<< (aa) ff           0.00
                       o<<<<< (aa) gop          0.00
                       o<<<<< (aa) dot          0.00
                       o<<<<< (ab) str          0.00
                       o<<<<< (ab) gath         0.00
                       o<<<<< (ab) dotab        0.00
                       o<<<<< (ab) scat         0.00
                       o<<<<< (ab) sync         0.00
                       o<<<<< Density           0.01
                       o<<<<< Density one       0.00
                       o<<<<< Density two       0.00
                       o<<<<< Density ab        0.01
                       o<<<<< Spin adapt        0.30
                       o<<<<< Symm adapt        0.00

                       o<<<<< (ab) max sync:      0.00
       1.1963     -75.98864765  5.53D-12  4.68D-12  4.12D-07 1.1D-05      6.0



          %%%%% MacroIteration   4 %%%%%


          Number of sigma calls:        1
                       o<<<<< (aa):             0.00
                       o<<<<< (bb):             0.00
                       o<<<<< (ab):             0.01
                       o<<<<< (total)           0.01
                       o<<<<< (aa) ff           0.00
                       o<<<<< (aa) gop          0.00
                       o<<<<< (aa) dot          0.00
                       o<<<<< (ab) str          0.00
                       o<<<<< (ab) gath         0.00
                       o<<<<< (ab) dotab        0.00
                       o<<<<< (ab) scat         0.00
                       o<<<<< (ab) sync         0.00
                       o<<<<< Density           0.00
                       o<<<<< Density one       0.00
                       o<<<<< Density two       0.00
                       o<<<<< Density ab        0.00
                       o<<<<< Spin adapt        0.00
                       o<<<<< Symm adapt        0.00

                       o<<<<< (ab) max sync:      0.00

           >>>| Valence CI:            -82.655693932254
           >>>| MCSCF energy:          -75.988647649556
           >>>| Gradient norm:          0.307205728D-03
     --- Warning:    3 Hessian diagonals < 0.05 ---

                              ----- Line search ------

        step       energy         lsg     num-lsg   num-lsh   lsrat    time
      ------- ---------------- --------- --------- --------- ------- --------
       0.0000     -75.98864765 -2.11D-08  0.00D+00  0.00D+00 0.0D+00      6.2

          Number of sigma calls:       14
                       o<<<<< (aa):             0.00
                       o<<<<< (bb):             0.00
                       o<<<<< (ab):             0.04
                       o<<<<< (total)           0.05
                       o<<<<< (aa) ff           0.00
                       o<<<<< (aa) gop          0.00
                       o<<<<< (aa) dot          0.00
                       o<<<<< (ab) str          0.00
                       o<<<<< (ab) gath         0.00
                       o<<<<< (ab) dotab        0.00
                       o<<<<< (ab) scat         0.00
                       o<<<<< (ab) sync         0.00
                       o<<<<< Density           0.01
                       o<<<<< Density one       0.00
                       o<<<<< Density two       0.00
                       o<<<<< Density ab        0.01
                       o<<<<< Spin adapt        0.39
                       o<<<<< Symm adapt        0.00

                       o<<<<< (ab) max sync:      0.00
       1.0000     -75.98864766 -4.88D-09 -4.88D-09  1.62D-08 2.3D-01      6.7

          Number of sigma calls:       12
                       o<<<<< (aa):             0.00
                       o<<<<< (bb):             0.00
                       o<<<<< (ab):             0.04
                       o<<<<< (total)           0.05
                       o<<<<< (aa) ff           0.00
                       o<<<<< (aa) gop          0.00
                       o<<<<< (aa) dot          0.00
                       o<<<<< (ab) str          0.00
                       o<<<<< (ab) gath         0.00
                       o<<<<< (ab) dotab        0.00
                       o<<<<< (ab) scat         0.00
                       o<<<<< (ab) sync         0.00
                       o<<<<< Density           0.01
                       o<<<<< Density one       0.00
                       o<<<<< Density two       0.00
                       o<<<<< Density ab        0.01
                       o<<<<< Spin adapt        0.28
                       o<<<<< Symm adapt        0.00

                       o<<<<< (ab) max sync:      0.00
       1.3003     -75.98864766 -3.89D-13  1.75D-13  1.62D-08 1.8D-05      7.2



          %%%%% MacroIteration   5 %%%%%


          Number of sigma calls:        1
                       o<<<<< (aa):             0.00
                       o<<<<< (bb):             0.00
                       o<<<<< (ab):             0.00
                       o<<<<< (total)           0.00
                       o<<<<< (aa) ff           0.00
                       o<<<<< (aa) gop          0.00
                       o<<<<< (aa) dot          0.00
                       o<<<<< (ab) str          0.00
                       o<<<<< (ab) gath         0.00
                       o<<<<< (ab) dotab        0.00
                       o<<<<< (ab) scat         0.00
                       o<<<<< (ab) sync         0.00
                       o<<<<< Density           0.01
                       o<<<<< Density one       0.00
                       o<<<<< Density two       0.00
                       o<<<<< Density ab        0.00
                       o<<<<< Spin adapt        0.00
                       o<<<<< Symm adapt        0.00

                       o<<<<< (ab) max sync:      0.00

           >>>| Valence CI:            -82.655693945982
           >>>| MCSCF energy:          -75.988647663284
           >>>| Gradient norm:          0.185053849D-04




     ==============================
            MCSCF Converged
     ==============================



          Canonical Eigenvalues

              1      
    1  -20.6072
    2   -1.3027
    3   -0.6679
    4   -0.5435
    5   -0.4279
    6   -0.1405
    7   -0.0263
    8   -0.0133
    9    0.2967
   10    0.3838
   11    0.6134
   12    0.7723
   13    0.7840
   14    0.8447
   15    0.8796
   16    0.9252
   17    0.9681
   18    1.3186
   19    1.3631
   20    1.7302
   21    1.8262
   22    2.0299
   23    2.0425
   24    2.1703
   25    2.6064
   26    2.7749
   27    3.4319
   28    3.4343
   29    3.4463
   30    3.4470
   31    3.4737
   32    3.5136
   33    3.5591
   34    3.6159
   35    3.7620
   36    3.8771
   37    3.9297
   38    3.9666
   39    4.0310
   40    4.0944
   41    4.1925
   42    4.4018
   43    4.4557
   44    4.7298
   45    5.1402
   46    5.5505
   47    5.5788
   48    5.8026
   49    5.8266
   50    6.7222
   51    6.7869
   52    6.8246
   53    6.8375
   54    6.9833
   55    7.0613
   56    7.0755
   57    7.5326
   58   10.8452


          Converged CI vector

   Index           Coefficient          Config. Occupation
         1          0.85791126          1  2  3  4  5  1  2  3  4  5
         2         -0.17146706          1  2  3  4  5  1  2  3  4  6
        23          0.05475010          1  2  3  4  5  1  2  3  5  8
         9         -0.03508235          1  2  3  4  5  1  2  4  5  7
        41         -0.02440944          1  2  3  4  5  1  2  5  7  8
        57         -0.17146706          1  2  3  4  6  1  2  3  4  5
        58         -0.41364590          1  2  3  4  6  1  2  3  4  6
        83         -0.03133995          1  2  3  4  6  1  2  3  6  8
        60          0.02732029          1  2  3  4  6  1  2  4  5  6
        69          0.02150136          1  2  3  4  6  1  2  4  6  7
      1233          0.05475010          1  2  3  5  8  1  2  3  4  5
      1255         -0.04793136          1  2  3  5  8  1  2  3  5  8
      1241          0.03012218          1  2  3  5  8  1  2  4  5  7
      1458         -0.03133995          1  2  3  6  8  1  2  3  4  6
      1483          0.02589348          1  2  3  6  8  1  2  3  6  8
       170          0.02732029          1  2  4  5  6  1  2  3  4  6
       449         -0.03508235          1  2  4  5  7  1  2  3  4  5
       471          0.03012218          1  2  4  5  7  1  2  3  5  8
       457         -0.06386754          1  2  4  5  7  1  2  4  5  7
       458         -0.02688064          1  2  4  5  7  1  3  4  5  7
       674          0.02150136          1  2  4  6  7  1  2  3  4  6
       685          0.03271345          1  2  4  6  7  1  2  4  6  7
      2241         -0.02440944          1  2  5  7  8  1  2  3  4  5
       513         -0.02688064          1  3  4  5  7  1  2  4  5  7
       514         -0.02527013          1  3  4  5  7  1  3  4  5  7

          Number of sigma calls:        1
                       o<<<<< (aa):             0.00
                       o<<<<< (bb):             0.00
                       o<<<<< (ab):             0.01
                       o<<<<< (total)           0.01
                       o<<<<< (aa) ff           0.00
                       o<<<<< (aa) gop          0.00
                       o<<<<< (aa) dot          0.00
                       o<<<<< (ab) str          0.00
                       o<<<<< (ab) gath         0.00
                       o<<<<< (ab) dotab        0.00
                       o<<<<< (ab) scat         0.00
                       o<<<<< (ab) sync         0.00
                       o<<<<< Density           0.00
                       o<<<<< Density one       0.00
                       o<<<<< Density two       0.00
                       o<<<<< Density ab        0.00
                       o<<<<< Spin adapt        0.00
                       o<<<<< Symm adapt        0.00

                       o<<<<< (ab) max sync:      0.00



          Natural orbital occupation numbers

              1      
    1    2.0000
    2    1.9984
    3    1.9838
    4    1.9743
    5    1.5987
    6    0.4023
    7    0.0268
    8    0.0158


          Number of sigma calls:       23
                       o<<<<< (aa):             0.00
                       o<<<<< (bb):             0.01
                       o<<<<< (ab):             0.09
                       o<<<<< (total)           0.10
                       o<<<<< (aa) ff           0.00
                       o<<<<< (aa) gop          0.00
                       o<<<<< (aa) dot          0.00
                       o<<<<< (ab) str          0.00
                       o<<<<< (ab) gath         0.00
                       o<<<<< (ab) dotab        0.00
                       o<<<<< (ab) scat         0.00
                       o<<<<< (ab) sync         0.00
                       o<<<<< Density           0.00
                       o<<<<< Density one       0.00
                       o<<<<< Density two       0.00
                       o<<<<< Density ab        0.00
                       o<<<<< Spin adapt        0.56
                       o<<<<< Symm adapt        0.00

                       o<<<<< (ab) max sync:      0.00


       Final MCSCF results 
       ------------------- 

       Total MCSCF energy =    -75.988647663284
            Gradient norm =      1.9D-05

    CPU time for solution =      8.0s
   Wall time for solution =     14.5s



                        Analysis of MCSCF natural orbitals
                        ----------------------------------

 Vector    1  Occ=1.999991D+00  E=-2.060718D+01  Symmetry=a
              MO Center= -9.1D-02, -1.7D-01, -6.8D-09, r^2= 1.5D-02
   Bfn.  Coefficient  Atom+Function         Bfn.  Coefficient  Atom+Function  
  ----- ------------  ---------------      ----- ------------  ---------------
     1      0.974583  1 O  s          

 Vector    2  Occ=1.998434D+00  E=-1.302718D+00  Symmetry=a
              MO Center= -2.7D-01, -1.3D-01,  4.5D-06, r^2= 4.3D-01
   Bfn.  Coefficient  Atom+Function         Bfn.  Coefficient  Atom+Function  
  ----- ------------  ---------------      ----- ------------  ---------------
     2      0.551457  1 O  s                  4      0.403490  1 O  s          
     3      0.153683  1 O  s          

 Vector    3  Occ=1.983803D+00  E=-6.678547D-01  Symmetry=a
              MO Center= -6.2D-02, -1.7D-01, -4.5D-06, r^2= 6.2D-01
   Bfn.  Coefficient  Atom+Function         Bfn.  Coefficient  Atom+Function  
  ----- ------------  ---------------      ----- ------------  ---------------
    10      0.446058  1 O  pz                13      0.381676  1 O  pz         
     7      0.369549  1 O  pz         

 Vector    4  Occ=1.974252D+00  E=-5.434632D-01  Symmetry=a
              MO Center=  3.3D-01, -3.1D-01, -6.1D-08, r^2= 5.8D-01
   Bfn.  Coefficient  Atom+Function         Bfn.  Coefficient  Atom+Function  
  ----- ------------  ---------------      ----- ------------  ---------------
     8      0.336695  1 O  px                 5      0.280849  1 O  px         
    46      0.279118  3 H  s                 45      0.188100  3 H  s          
    11      0.184868  1 O  px         

 Vector    5  Occ=1.598672D+00  E=-4.279433D-01  Symmetry=a
              MO Center= -6.2D-02,  7.5D-01, -5.3D-09, r^2= 1.6D+00
   Bfn.  Coefficient  Atom+Function         Bfn.  Coefficient  Atom+Function  
  ----- ------------  ---------------      ----- ------------  ---------------
     9      0.309607  1 O  py                32      0.307857  2 H  s          
    33      0.250508  2 H  s                  6      0.242913  1 O  py         
    12      0.218781  1 O  py         

 Vector    6  Occ=4.022652D-01  E=-1.404664D-01  Symmetry=a
              MO Center= -7.5D-02,  9.2D-01, -2.7D-09, r^2= 1.7D+00
   Bfn.  Coefficient  Atom+Function         Bfn.  Coefficient  Atom+Function  
  ----- ------------  ---------------      ----- ------------  ---------------
    32      0.423996  2 H  s                  9     -0.375459  1 O  py         
     6     -0.291066  1 O  py                33      0.268812  2 H  s          
    31      0.192551  2 H  s                 12     -0.188070  1 O  py         

 Vector    7  Occ=2.676072D-02  E=-2.628365D-02  Symmetry=a
              MO Center=  5.1D-01, -3.8D-01, -2.4D-07, r^2= 6.1D-01
   Bfn.  Coefficient  Atom+Function         Bfn.  Coefficient  Atom+Function  
  ----- ------------  ---------------      ----- ------------  ---------------
    46      0.691165  3 H  s                  5     -0.486106  1 O  px         
     8     -0.424834  1 O  px                45      0.338651  3 H  s          
     2     -0.286777  1 O  s                  4     -0.248964  1 O  s          
     6      0.155010  1 O  py         

 Vector    8  Occ=1.582129D-02  E=-1.333389D-02  Symmetry=a
              MO Center=  3.8D-02, -2.1D-01, -6.0D-06, r^2= 1.2D+00
   Bfn.  Coefficient  Atom+Function         Bfn.  Coefficient  Atom+Function  
  ----- ------------  ---------------      ----- ------------  ---------------
    13      0.823541  1 O  pz                 7     -0.632745  1 O  pz         
    10     -0.291345  1 O  pz                53      0.157886  3 H  pz         

 Vector    9  Occ=0.000000D+00  E= 2.966678D-01  Symmetry=a
              MO Center=  1.1D+00, -6.9D-01,  1.8D-06, r^2= 3.6D+00
   Bfn.  Coefficient  Atom+Function         Bfn.  Coefficient  Atom+Function  
  ----- ------------  ---------------      ----- ------------  ---------------
    47      1.991521  3 H  s                  4     -1.283652  1 O  s          
    11     -0.588870  1 O  px                51     -0.436607  3 H  px         
    46     -0.250573  3 H  s                 52      0.174470  3 H  py         
    12      0.161639  1 O  py         

 Vector   10  Occ=0.000000D+00  E= 3.838443D-01  Symmetry=a
              MO Center= -1.2D-01,  2.1D+00,  7.2D-08, r^2= 3.2D+00
   Bfn.  Coefficient  Atom+Function         Bfn.  Coefficient  Atom+Function  
  ----- ------------  ---------------      ----- ------------  ---------------
    33      1.781954  2 H  s                 32     -1.307415  2 H  s          
    47     -0.442941  3 H  s                 12     -0.316734  1 O  py         
    46      0.276586  3 H  s                  4     -0.261495  1 O  s          

 Vector   11  Occ=0.000000D+00  E= 6.133681D-01  Symmetry=a
              MO Center= -4.5D-01,  5.3D-01, -1.6D-07, r^2= 2.2D+00
   Bfn.  Coefficient  Atom+Function         Bfn.  Coefficient  Atom+Function  
  ----- ------------  ---------------      ----- ------------  ---------------
    46      2.550412  3 H  s                  4     -2.062781  1 O  s          
    11     -2.043033  1 O  px                51     -0.776676  3 H  px         
    12      0.643615  1 O  py                37     -0.421468  2 H  px         
    47      0.335101  3 H  s                 52      0.215440  3 H  py         
    33     -0.180061  2 H  s                 23     -0.176731  1 O  d  2       

 Vector   12  Occ=0.000000D+00  E= 7.723417D-01  Symmetry=a
              MO Center=  5.6D-02,  1.4D+00,  5.8D-07, r^2= 1.9D+00
   Bfn.  Coefficient  Atom+Function         Bfn.  Coefficient  Atom+Function  
  ----- ------------  ---------------      ----- ------------  ---------------
    39      0.925962  2 H  pz                53     -0.538169  3 H  pz         
    13      0.243279  1 O  pz         

 Vector   13  Occ=0.000000D+00  E= 7.839963D-01  Symmetry=a
              MO Center=  5.4D-02,  4.1D-01, -2.8D-07, r^2= 2.6D+00
   Bfn.  Coefficient  Atom+Function         Bfn.  Coefficient  Atom+Function  
  ----- ------------  ---------------      ----- ------------  ---------------
    12      0.893551  1 O  py                46      0.881172  3 H  s          
     4     -0.661279  1 O  s                  9     -0.532433  1 O  py         
    11     -0.492895  1 O  px                52      0.451878  3 H  py         
    38     -0.384722  2 H  py                37      0.289803  2 H  px         
    32     -0.258812  2 H  s                  6     -0.192331  1 O  py         

 Vector   14  Occ=0.000000D+00  E= 8.447465D-01  Symmetry=a
              MO Center=  4.6D-03,  8.2D-01,  1.0D-07, r^2= 2.7D+00
   Bfn.  Coefficient  Atom+Function         Bfn.  Coefficient  Atom+Function  
  ----- ------------  ---------------      ----- ------------  ---------------
    46     -1.356378  3 H  s                  4      1.329400  1 O  s          
    11      1.268176  1 O  px                52     -0.768661  3 H  py         
    37     -0.569309  2 H  px                38     -0.526879  2 H  py         
    33      0.357323  2 H  s                 47     -0.336485  3 H  s          
    32     -0.307396  2 H  s                 51      0.228269  3 H  px         

 Vector   15  Occ=0.000000D+00  E= 8.795921D-01  Symmetry=a
              MO Center=  8.4D-02,  6.7D-01, -2.8D-07, r^2= 2.9D+00
   Bfn.  Coefficient  Atom+Function         Bfn.  Coefficient  Atom+Function  
  ----- ------------  ---------------      ----- ------------  ---------------
    37      0.697881  2 H  px                 4      0.470659  1 O  s          
    38     -0.465396  2 H  py                47     -0.453685  3 H  s          
    11     -0.443877  1 O  px                12     -0.406134  1 O  py         
     2     -0.386887  1 O  s                 52     -0.380598  3 H  py         
     9      0.291350  1 O  py                 8      0.283319  1 O  px         

 Vector   16  Occ=0.000000D+00  E= 9.251965D-01  Symmetry=a
              MO Center=  3.4D-01,  2.8D-02, -4.3D-07, r^2= 2.5D+00
   Bfn.  Coefficient  Atom+Function         Bfn.  Coefficient  Atom+Function  
  ----- ------------  ---------------      ----- ------------  ---------------
    53      1.138234  3 H  pz                13     -0.917903  1 O  pz         
    39      0.522675  2 H  pz         

 Vector   17  Occ=0.000000D+00  E= 9.681110D-01  Symmetry=a
              MO Center=  8.7D-02, -4.4D-01,  2.3D-06, r^2= 2.5D+00
   Bfn.  Coefficient  Atom+Function         Bfn.  Coefficient  Atom+Function  
  ----- ------------  ---------------      ----- ------------  ---------------
     4      2.577603  1 O  s                 46     -1.754804  3 H  s          
    12     -1.491153  1 O  py                51      1.089974  3 H  px         
    11      0.798909  1 O  px                47     -0.740053  3 H  s          
    52      0.601538  3 H  py                 2     -0.583764  1 O  s          
    38     -0.442943  2 H  py                 8      0.423328  1 O  px         

 Vector   18  Occ=0.000000D+00  E= 1.318623D+00  Symmetry=a
              MO Center= -6.7D-02,  4.2D-01,  3.1D-06, r^2= 2.2D+00
   Bfn.  Coefficient  Atom+Function         Bfn.  Coefficient  Atom+Function  
  ----- ------------  ---------------      ----- ------------  ---------------
     4      3.828608  1 O  s                 46     -2.228005  3 H  s          
    51      1.195406  3 H  px                11      1.091367  1 O  px         
    52     -0.904849  3 H  py                 2     -0.835715  1 O  s          
    38      0.783003  2 H  py                 8      0.687866  1 O  px         
    12      0.601589  1 O  py                47     -0.584543  3 H  s          


 Wrote Lagrangian and 1- and 2-particle density matrices to ./H2O.mcpdm


     Multipole analysis of the density
     ---------------------------------

     L   x y z        total        nuclear
     -   - - -        -----        -------
     0   0 0 0     -0.000000     10.000000

     1   1 0 0      0.568089     -0.000000
     1   0 1 0     -0.009993      0.000000
     1   0 0 1      0.000000      0.000000

     2   2 0 0     -4.476064      2.679864
     2   1 1 0     -0.672041     -1.659399
     2   1 0 1     -0.000000      0.000000
     2   0 2 0     -3.740497     13.722085
     2   0 1 1     -0.000000      0.000000
     2   0 0 2     -5.937963      0.000000


  Mulliken analysis of the total density
  --------------------------------------

    Atom       Charge   Shell Charges
 -----------   ------   -------------------------------------------------------
    1 O    8     8.29   1.95  1.06  0.25  0.64  1.21  1.95  1.21  0.00  0.01  0.00
    2 H    1     0.95   0.16  0.46  0.32  0.00  0.00  0.00
    3 H    1     0.76   0.25  0.39  0.04  0.02  0.05  0.01

    Mulliken analysis of the active space density
    ---------------------------------------------

    Atom       Charge   Shell Charges
 -----------   ------   -------------------------------------------------------
    1 O    8     8.29   1.95  1.06  0.25  0.64  1.21  1.95  1.21  0.00  0.01  0.00
    2 H    1     0.95   0.16  0.46  0.32  0.00  0.00  0.00
    3 H    1     0.76   0.25  0.39  0.04  0.02  0.05  0.01

 Parallel integral file used      15 records with       0 large values


 Task  times  cpu:        8.0s     wall:       14.5s


                                NWChem Input Module
                                -------------------


                                 NWChem SCF Module
                                 -----------------


                                        H2O



  ao basis        = "ao basis"
  functions       =    58
  atoms           =     3
  closed shells   =     5
  open shells     =     0
  charge          =   0.00
  wavefunction    = RHF 
  input vectors   = ./h2o.mos
  output vectors  = ./h2o-trash.mos
  use symmetry    = F
  symmetry adapt  = F


 Summary of "ao basis" -> "ao basis" (spherical)
 ------------------------------------------------------------------------------
       Tag                 Description            Shells   Functions and Types
 ---------------- ------------------------------  ------  ---------------------
 O                          cc-pVTZ                 10       30   4s3p2d1f
 H                          cc-pVTZ                  6       14   3s2p1d



 Forming initial guess at      14.5s


 Loading old vectors from job with title :

H2O


 Starting SCF solution at      14.5s



 ----------------------------------------------
         Quadratically convergent ROHF

 Convergence threshold     :          1.000E-04
 Maximum no. of iterations :           30
 Final Fock-matrix accuracy:          1.000E-07
 ----------------------------------------------


 Integral file          = ./H2O.aoints.0
 Record size in doubles =  65536        No. of integs per rec  =  43688
 Max. records in memory =     49        Max. records in file   = 248785
 No. of bits per label  =      8        No. of bits per value  =     64


 #quartets = 3.203D+04 #integrals = 6.474D+05 #direct =  0.0% #cached =100.0%



       Final RHF  results 
       ------------------ 

         Total SCF energy =    -75.807096364826
      One-electron energy =   -117.923729538494
      Two-electron energy =     35.449586890970
 Nuclear repulsion energy =      6.667046282698

        Time for solution =      0.1s


             Final eigenvalues
             -----------------

              1      
    1  -20.6072
    2   -1.3027
    3   -0.6679
    4   -0.5435
    5   -0.4279
    6   -0.1405
    7   -0.0263
    8   -0.0133
    9    0.2967
   10    0.3838
   11    0.6134
   12    0.7723
   13    0.7840
   14    0.8447
   15    0.8796

                       ROHF Final Molecular Orbital Analysis
                       -------------------------------------

 Vector    2  Occ=2.000000D+00  E=-1.302718D+00
              MO Center= -2.7D-01, -1.3D-01,  4.5D-06, r^2= 4.3D-01
   Bfn.  Coefficient  Atom+Function         Bfn.  Coefficient  Atom+Function  
  ----- ------------  ---------------      ----- ------------  ---------------
     2      0.551457  1 O  s                  4      0.403490  1 O  s          
     3      0.153683  1 O  s          

 Vector    3  Occ=2.000000D+00  E=-6.678547D-01
              MO Center= -6.2D-02, -1.7D-01, -4.5D-06, r^2= 6.2D-01
   Bfn.  Coefficient  Atom+Function         Bfn.  Coefficient  Atom+Function  
  ----- ------------  ---------------      ----- ------------  ---------------
    10      0.446058  1 O  pz                13      0.381676  1 O  pz         
     7      0.369549  1 O  pz         

 Vector    4  Occ=2.000000D+00  E=-5.434632D-01
              MO Center=  3.3D-01, -3.1D-01, -6.1D-08, r^2= 5.8D-01
   Bfn.  Coefficient  Atom+Function         Bfn.  Coefficient  Atom+Function  
  ----- ------------  ---------------      ----- ------------  ---------------
     8      0.336695  1 O  px                 5      0.280849  1 O  px         
    46      0.279118  3 H  s                 45      0.188100  3 H  s          
    11      0.184868  1 O  px         

 Vector    5  Occ=2.000000D+00  E=-4.279433D-01
              MO Center= -6.2D-02,  7.5D-01, -5.3D-09, r^2= 1.6D+00
   Bfn.  Coefficient  Atom+Function         Bfn.  Coefficient  Atom+Function  
  ----- ------------  ---------------      ----- ------------  ---------------
     9      0.309607  1 O  py                32      0.307857  2 H  s          
    33      0.250508  2 H  s                  6      0.242913  1 O  py         
    12      0.218781  1 O  py         

 Vector    6  Occ=0.000000D+00  E=-1.404664D-01
              MO Center= -7.5D-02,  9.2D-01, -2.7D-09, r^2= 1.7D+00
   Bfn.  Coefficient  Atom+Function         Bfn.  Coefficient  Atom+Function  
  ----- ------------  ---------------      ----- ------------  ---------------
    32      0.423996  2 H  s                  9     -0.375459  1 O  py         
     6     -0.291066  1 O  py                33      0.268812  2 H  s          
    31      0.192551  2 H  s                 12     -0.188070  1 O  py         

 Vector    7  Occ=0.000000D+00  E=-2.628365D-02
              MO Center=  5.1D-01, -3.8D-01, -2.4D-07, r^2= 6.1D-01
   Bfn.  Coefficient  Atom+Function         Bfn.  Coefficient  Atom+Function  
  ----- ------------  ---------------      ----- ------------  ---------------
    46      0.691165  3 H  s                  5     -0.486106  1 O  px         
     8     -0.424834  1 O  px                45      0.338651  3 H  s          
     2     -0.286777  1 O  s                  4     -0.248964  1 O  s          
     6      0.155010  1 O  py         

 Vector    8  Occ=0.000000D+00  E=-1.333389D-02
              MO Center=  3.8D-02, -2.1D-01, -6.0D-06, r^2= 1.2D+00
   Bfn.  Coefficient  Atom+Function         Bfn.  Coefficient  Atom+Function  
  ----- ------------  ---------------      ----- ------------  ---------------
    13      0.823541  1 O  pz                 7     -0.632745  1 O  pz         
    10     -0.291345  1 O  pz                53      0.157886  3 H  pz         

 Vector    9  Occ=0.000000D+00  E= 2.966678D-01
              MO Center=  1.1D+00, -6.9D-01,  1.8D-06, r^2= 3.6D+00
   Bfn.  Coefficient  Atom+Function         Bfn.  Coefficient  Atom+Function  
  ----- ------------  ---------------      ----- ------------  ---------------
    47      1.991521  3 H  s                  4     -1.283652  1 O  s          
    11     -0.588870  1 O  px                51     -0.436607  3 H  px         
    46     -0.250573  3 H  s                 52      0.174470  3 H  py         
    12      0.161639  1 O  py         

 Vector   10  Occ=0.000000D+00  E= 3.838443D-01
              MO Center= -1.2D-01,  2.1D+00,  7.2D-08, r^2= 3.2D+00
   Bfn.  Coefficient  Atom+Function         Bfn.  Coefficient  Atom+Function  
  ----- ------------  ---------------      ----- ------------  ---------------
    33      1.781954  2 H  s                 32     -1.307415  2 H  s          
    47     -0.442941  3 H  s                 12     -0.316734  1 O  py         
    46      0.276586  3 H  s                  4     -0.261495  1 O  s          

 Vector   11  Occ=0.000000D+00  E= 6.133681D-01
              MO Center= -4.5D-01,  5.3D-01, -1.6D-07, r^2= 2.2D+00
   Bfn.  Coefficient  Atom+Function         Bfn.  Coefficient  Atom+Function  
  ----- ------------  ---------------      ----- ------------  ---------------
    46      2.550412  3 H  s                  4     -2.062781  1 O  s          
    11     -2.043033  1 O  px                51     -0.776676  3 H  px         
    12      0.643615  1 O  py                37     -0.421468  2 H  px         
    47      0.335101  3 H  s                 52      0.215440  3 H  py         
    33     -0.180061  2 H  s                 23     -0.176731  1 O  d  2       

 Vector   12  Occ=0.000000D+00  E= 7.723417D-01
              MO Center=  5.6D-02,  1.4D+00,  5.8D-07, r^2= 1.9D+00
   Bfn.  Coefficient  Atom+Function         Bfn.  Coefficient  Atom+Function  
  ----- ------------  ---------------      ----- ------------  ---------------
    39      0.925962  2 H  pz                53     -0.538169  3 H  pz         
    13      0.243279  1 O  pz         

 Vector   13  Occ=0.000000D+00  E= 7.839963D-01
              MO Center=  5.4D-02,  4.1D-01, -2.8D-07, r^2= 2.6D+00
   Bfn.  Coefficient  Atom+Function         Bfn.  Coefficient  Atom+Function  
  ----- ------------  ---------------      ----- ------------  ---------------
    12      0.893551  1 O  py                46      0.881172  3 H  s          
     4     -0.661279  1 O  s                  9     -0.532433  1 O  py         
    11     -0.492895  1 O  px                52      0.451878  3 H  py         
    38     -0.384722  2 H  py                37      0.289803  2 H  px         
    32     -0.258812  2 H  s                  6     -0.192331  1 O  py         

 Vector   14  Occ=0.000000D+00  E= 8.447465D-01
              MO Center=  4.6D-03,  8.2D-01,  1.0D-07, r^2= 2.7D+00
   Bfn.  Coefficient  Atom+Function         Bfn.  Coefficient  Atom+Function  
  ----- ------------  ---------------      ----- ------------  ---------------
    46     -1.356378  3 H  s                  4      1.329400  1 O  s          
    11      1.268176  1 O  px                52     -0.768661  3 H  py         
    37     -0.569309  2 H  px                38     -0.526879  2 H  py         
    33      0.357323  2 H  s                 47     -0.336485  3 H  s          
    32     -0.307396  2 H  s                 51      0.228269  3 H  px         

 Vector   15  Occ=0.000000D+00  E= 8.795921D-01
              MO Center=  8.4D-02,  6.7D-01, -2.8D-07, r^2= 2.9D+00
   Bfn.  Coefficient  Atom+Function         Bfn.  Coefficient  Atom+Function  
  ----- ------------  ---------------      ----- ------------  ---------------
    37      0.697881  2 H  px                 4      0.470659  1 O  s          
    38     -0.465396  2 H  py                47     -0.453685  3 H  s          
    11     -0.443877  1 O  px                12     -0.406134  1 O  py         
     2     -0.386887  1 O  s                 52     -0.380598  3 H  py         
     9      0.291350  1 O  py                 8      0.283319  1 O  px         


 center of mass
 --------------
 x =  -0.07599894 y =  -0.13787399 z =   0.00000000

 moments of inertia (a.u.)
 ------------------
          14.264448528010           1.432609789104           0.000000000000
           1.432609789104           2.833002082974           0.000000000000
           0.000000000000           0.000000000000          17.097450610984

  Mulliken analysis of the total density
  --------------------------------------

    Atom       Charge   Shell Charges
 -----------   ------   -------------------------------------------------------
    1 O    8     8.33   1.95  1.05  0.25  0.65  1.19  1.96  1.26  0.00  0.01  0.00
    2 H    1     0.92   0.15  0.43  0.33  0.00  0.01  0.00
    3 H    1     0.76   0.25  0.39  0.04  0.02  0.06  0.01

       Multipole analysis of the density wrt the origin
       ------------------------------------------------

     L   x y z        total         open         nuclear
     -   - - -        -----         ----         -------
     0   0 0 0     -0.000000      0.000000     10.000000

     1   1 0 0      0.571159      0.000000     -0.000000
     1   0 1 0      0.119649      0.000000      0.000000
     1   0 0 1      0.000000      0.000000      0.000000

     2   2 0 0     -4.507216      0.000000      2.679864
     2   1 1 0     -0.757218      0.000000     -1.659399
     2   1 0 1     -0.000000      0.000000      0.000000
     2   0 2 0     -3.123580      0.000000     13.722085
     2   0 1 1     -0.000000      0.000000      0.000000
     2   0 0 2     -5.965572      0.000000      0.000000


 Parallel integral file used      15 records with       0 large values

 ------------------------------------
     Number of active orbitals      8
     Number of active alpha electrons      5
     Number of active beta electrons       5
 ------------------------------------
                   NWChem Extensible Many-Electron Theory Module
                   ---------------------------------------------

              ======================================================
                   This portion of the program was automatically
                  generated by a Tensor Contraction Engine (TCE).
                  The development of this portion of the program
                 and TCE was supported by US Department of Energy,
                Office of Science, Office of Basic Energy Science.
                      TCE is a product of Battelle and PNNL.
              Please cite: S.Hirata, J.Phys.Chem.A 107, 9887 (2003).
              ======================================================

                                        H2O


            General Information
            -------------------
      Number of processors :     1
         Wavefunction type : Restricted Hartree-Fock
          No. of electrons :    10
           Alpha electrons :     5
            Beta electrons :     5
           No. of orbitals :   116
            Alpha orbitals :    58
             Beta orbitals :    58
        Alpha frozen cores :     0
         Beta frozen cores :     0
     Alpha frozen virtuals :    50
      Beta frozen virtuals :    50
         Spin multiplicity : singlet 
    Number of AO functions :    58
       Number of AO shells :    22
        Use of symmetry is : off
      Symmetry adaption is : off
         Schwarz screening : 0.10D-09

          Correlation Information
          -----------------------
          Calculation type : Coupled-cluster singles & doubles                           
   Perturbative correction : none                                                        
            Max iterations :      300
        Residual threshold : 0.10D-06
     T(0) DIIS level shift : 0.00D+00
     L(0) DIIS level shift : 0.00D+00
     T(1) DIIS level shift : 0.00D+00
     L(1) DIIS level shift : 0.00D+00
     T(R) DIIS level shift : 0.00D+00
     T(I) DIIS level shift : 0.00D+00
   CC-T/L Amplitude update :  5-th order DIIS
                I/O scheme : Global Array Library
        L-threshold :  0.10D-06
        EOM-threshold :  0.10D-06
 no EOMCCSD initial starts read in
 TCE RESTART OPTIONS
 READ_INT:   F
 WRITE_INT:  F
 READ_TA:    F
 WRITE_TA:   F
 READ_XA:    F
 WRITE_XA:   F
 READ_IN3:   F
 WRITE_IN3:  F
 SLICE:      F
 D4D5:       F
 quantumc:   T
 qrotation:  F
 pwtce:      F
 qducc:      F
 nacto:                         0
 nrotv:                         0
 nrot:                          0

            Memory Information
            ------------------
          Available GA space size is    1610609372 doubles
          Available MA space size is    1610609780 doubles

 Maximum block size supplied by input
 Maximum block size         1 doubles

 tile_dim =      1

 Block   Spin    Irrep     Size     Offset   Alpha
 -------------------------------------------------
   1    alpha     a      1 doubles       0       1
   2    alpha     a      1 doubles       1       2
   3    alpha     a      1 doubles       2       3
   4    alpha     a      1 doubles       3       4
   5    alpha     a      1 doubles       4       5
   6    beta      a      1 doubles       5       1
   7    beta      a      1 doubles       6       2
   8    beta      a      1 doubles       7       3
   9    beta      a      1 doubles       8       4
  10    beta      a      1 doubles       9       5
  11    alpha     a      1 doubles      10      11
  12    alpha     a      1 doubles      11      12
  13    alpha     a      1 doubles      12      13
  14    beta      a      1 doubles      13      11
  15    beta      a      1 doubles      14      12
  16    beta      a      1 doubles      15      13

 Global array virtual files algorithm will be used

 Parallel file system coherency ......... OK

 Integral file          = ./H2O.aoints.0
 Record size in doubles =  65536        No. of integs per rec  =  43688
 Max. records in memory =     49        Max. records in file   = 248785
 No. of bits per label  =      8        No. of bits per value  =     64


 #quartets = 3.212D+04 #integrals = 6.591D+05 #direct =  0.0% #cached =100.0%


 Fock matrix recomputed
 1-e file size   =               64
 1-e file name   = ./H2O.f1
 Cpu & wall time / sec            0.1            0.1
 4-electron integrals stored in orbital form

 v2    file size   =              666
 4-index algorithm nr.  13 is used
 imaxsize =       30
 imaxsize ichop =        0
 begin_one_electron_integrals
    1    1       -32.7222397075
    2    1        -0.7496595614
    3    1        -0.0000016249
    4    1         0.1303612295
    5    1        -0.0303027032
    6    1        -0.0668150067
    7    1        -0.2084541799
    8    1         0.0000039902
    1    2        -0.7496595614
    2    2        -7.6638931211
    3    2         0.0000047019
    4    2        -0.2634912547
    5    2         0.1215051807
    6    2         0.2277420466
    7    2         0.1211618155
    8    2         0.0000018826
    1    3        -0.0000016249
    2    3         0.0000047019
    3    3        -6.8812783647
    4    3         0.0000018890
    5    3        -0.0000006940
    6    3        -0.0000014200
    7    3        -0.0000014834
    8    3         2.1253432266
    1    4         0.1303612295
    2    4        -0.2634912547
    3    4         0.0000018890
    4    4        -6.6553152111
    5    4        -0.0589625419
    6    4        -0.0278856809
    7    4         1.9365647627
    8    4         0.0000025544
    1    5        -0.0303027032
    2    5         0.1215051807
    3    5        -0.0000006940
    4    5        -0.0589625419
    5    5        -5.0391383649
    6    5         2.1926656185
    7    5         0.0103101493
    8    5         0.0000022608
    1    6        -0.0668150067
    2    6         0.2277420466
    3    6        -0.0000014200
    4    6        -0.0278856809
    5    6         2.1926656185
    6    6        -4.9826984591
    7    6         0.0204577866
    8    6         0.0000008849
    1    7        -0.2084541799
    2    7         0.1211618155
    3    7        -0.0000014834
    4    7         1.9365647627
    5    7         0.0103101493
    6    7         0.0204577866
    7    7        -5.9228880282
    8    7         0.0000000987
    1    8         0.0000039902
    2    8         0.0000018826
    3    8         2.1253432266
    4    8         0.0000025544
    5    8         0.0000022608
    6    8         0.0000008849
    7    8         0.0000000987
    8    8        -5.2381644038
 end_one_electron_integrals
 begin_two_electron_integrals
    1    1    1    1        4.8181055921
    2    1    1    1       -0.2630731874
    2    1    2    1        0.0348618607
    3    1    1    1        0.0000026600
    3    1    2    1       -0.0000001139
    3    1    3    1        0.0287870713
    3    1    2    2        0.0000003954
    4    1    1    1       -0.0888283343
    4    1    2    1        0.0031338980
    4    1    3    1       -0.0000000471
    4    1    4    1        0.0214898649
    4    1    2    2       -0.0143807609
    4    1    3    2        0.0000000705
    4    1    3    3       -0.0023398558
    5    1    1    1        0.0177366391
    5    1    2    1       -0.0024018317
    5    1    3    1        0.0000000192
    5    1    4    1        0.0003747031
    5    1    5    1        0.0144134391
    5    1    2    2       -0.0000165351
    5    1    3    2        0.0000000092
    5    1    4    2        0.0006242050
    5    1    3    3        0.0014765989
    5    1    4    3       -0.0000000043
    5    1    4    4        0.0015045947
    6    1    1    1        0.0452075241
    6    1    2    1       -0.0039326941
    6    1    3    1        0.0000000367
    6    1    4    1       -0.0007674999
    6    1    5    1       -0.0161419017
    6    1    6    1        0.0194814746
    6    1    2    2        0.0034681391
    6    1    3    2       -0.0000000062
    6    1    4    2        0.0006264440
    6    1    5    2       -0.0159509778
    6    1    3    3        0.0023817941
    6    1    4    3       -0.0000000042
    6    1    5    3        0.0000001048
    6    1    4    4        0.0024142862
    6    1    5    4       -0.0029799605
    6    1    5    5        0.0004242886
    7    1    1    1        0.1696696689
    7    1    2    1       -0.0089399344
    7    1    3    1        0.0000001184
    7    1    4    1       -0.0332888593
    7    1    5    1        0.0001355738
    7    1    6    1        0.0011619213
    7    1    7    1        0.0522193362
    7    1    2    2        0.0226203350
    7    1    3    2       -0.0000001061
    7    1    4    2       -0.0262634944
    7    1    5    2       -0.0010886522
    7    1    6    2       -0.0023360323
    7    1    3    3        0.0035949561
    7    1    4    3        0.0000001712
    7    1    5    3        0.0000000066
    7    1    6    3        0.0000000141
    7    1    4    4       -0.0149230102
    7    1    5    4        0.0006561603
    7    1    6    4        0.0016295500
    7    1    5    5        0.0025740880
    7    1    6    5       -0.0014258493
    7    1    6    6        0.0029896473
    8    1    1    1       -0.0000032398
    8    1    2    1        0.0000001180
    8    1    3    1       -0.0397889461
    8    1    4    1        0.0000000301
    8    1    5    1       -0.0000000371
    8    1    6    1       -0.0000000310
    8    1    7    1       -0.0000001050
    8    1    8    1        0.0553473822
    8    1    2    2       -0.0000005418
    8    1    3    2       -0.0384077611
    8    1    4    2       -0.0000001190
    8    1    5    2       -0.0000000072
    8    1    6    2        0.0000000422
    8    1    7    2        0.0000001401
    8    1    3    3        0.0000004171
    8    1    4    3       -0.0074981527
    8    1    5    3        0.0008220295
    8    1    6    3        0.0030762413
    8    1    7    3        0.0103387567
    8    1    4    4       -0.0000001144
    8    1    5    4       -0.0000000034
    8    1    6    4        0.0000000082
    8    1    7    4        0.0000000889
    8    1    5    5       -0.0000000425
    8    1    6    5        0.0000000515
    8    1    7    5        0.0000000043
    8    1    6    6       -0.0000000591
    8    1    7    6       -0.0000000135
    8    1    7    7       -0.0000001610
    2    2    1    1        1.0854485409
    2    2    2    1        0.0058785014
    2    2    2    2        0.8265489338
    3    2    1    1       -0.0000002905
    3    2    2    1        0.0000001333
    3    2    3    1        0.0264315568
    3    2    2    2        0.0000013471
    3    2    3    2        0.1435995115
    4    2    1    1       -0.0047012648
    4    2    2    1       -0.0044165325
    4    2    3    1        0.0000000574
    4    2    4    1        0.0169495220
    4    2    2    2       -0.0564469475
    4    2    3    2        0.0000005753
    4    2    4    2        0.0908815796
    4    2    3    3        0.0108185472
    5    2    1    1       -0.0375381181
    5    2    2    1       -0.0007026405
    5    2    3    1       -0.0000000054
    5    2    4    1        0.0010413638
    5    2    5    1        0.0132207874
    5    2    2    2       -0.0276912732
    5    2    3    2        0.0000000385
    5    2    4    2        0.0020313694
    5    2    5    2        0.0812942138
    5    2    3    3       -0.0180563691
    5    2    4    3       -0.0000000106
    5    2    4    4       -0.0159681504
    6    2    1    1       -0.0457444150
    6    2    2    1        0.0002178241
    6    2    3    1       -0.0000000220
    6    2    4    1        0.0011641018
    6    2    5    1       -0.0142005783
    6    2    6    1        0.0164632219
    6    2    2    2       -0.0220059306
    6    2    3    2       -0.0000000768
    6    2    4    2        0.0050959851
    6    2    5    2       -0.0738041165
    6    2    6    2        0.0748315726
    6    2    3    3       -0.0239557995
    6    2    4    3       -0.0000000392
    6    2    5    3        0.0000003545
    6    2    4    4       -0.0154722268
    6    2    5    4       -0.0114913182
    6    2    5    5       -0.0186031382
    7    2    1    1       -0.0267158573
    7    2    2    1        0.0051629991
    7    2    3    1       -0.0000000848
    7    2    4    1       -0.0162971785
    7    2    5    1       -0.0001813258
    7    2    6    1       -0.0013423554
    7    2    7    1        0.0239795542
    7    2    2    2        0.0284266071
    7    2    3    2       -0.0000004663
    7    2    4    2       -0.0603570556
    7    2    5    2        0.0011644716
    7    2    6    2       -0.0059226280
    7    2    7    2        0.0525159781
    7    2    3    3       -0.0188360199
    7    2    4    3        0.0000002695
    7    2    5    3       -0.0000000037
    7    2    6    3        0.0000000486
    7    2    4    4       -0.0356896098
    7    2    5    4        0.0013362960
    7    2    6    4        0.0036864756
    7    2    5    5       -0.0089958879
    7    2    6    5        0.0125685215
    7    2    6    6       -0.0105141031
    8    2    1    1       -0.0000003454
    8    2    2    1       -0.0000001243
    8    2    3    1       -0.0207214511
    8    2    4    1       -0.0000000567
    8    2    5    1       -0.0000000145
    8    2    6    1        0.0000000127
    8    2    7    1        0.0000000725
    8    2    8    1        0.0269649975
    8    2    2    2       -0.0000008405
    8    2    3    2       -0.0533452342
    8    2    4    2       -0.0000000828
    8    2    5    2       -0.0000000228
    8    2    6    2        0.0000000719
    8    2    7    2        0.0000002021
    8    2    8    2        0.0442218495
    8    2    3    3        0.0000004614
    8    2    4    3       -0.0035768052
    8    2    5    3        0.0017955451
    8    2    6    3        0.0053872141
    8    2    7    3        0.0115655693
    8    2    4    4       -0.0000001126
    8    2    5    4        0.0000000005
    8    2    6    4        0.0000000163
    8    2    7    4        0.0000001550
    8    2    5    5       -0.0000001239
    8    2    6    5        0.0000000613
    8    2    7    5        0.0000000072
    8    2    6    6       -0.0000001240
    8    2    7    6       -0.0000000153
    8    2    7    7       -0.0000000664
    3    3    1    1        1.0483698453
    3    3    2    1        0.0038657700
    3    3    3    1       -0.0000002851
    3    3    2    2        0.7405780833
    3    3    3    2       -0.0000017218
    3    3    3    3        0.7596376436
    4    3    1    1       -0.0000000493
    4    3    2    1        0.0000000586
    4    3    3    1        0.0053529046
    4    3    4    1       -0.0000001138
    4    3    2    2        0.0000006358
    4    3    3    2        0.0230178543
    4    3    4    2       -0.0000003400
    4    3    3    3       -0.0000003951
    4    3    4    3        0.0364579249
    5    3    1    1        0.0000002283
    5    3    2    1        0.0000000003
    5    3    3    1       -0.0006555958
    5    3    4    1       -0.0000000066
    5    3    5    1       -0.0000000878
    5    3    2    2        0.0000001293
    5    3    3    2       -0.0029314132
    5    3    4    2       -0.0000000108
    5    3    5    2       -0.0000003931
    5    3    3    3        0.0000001434
    5    3    4    3        0.0003311325
    5    3    5    3        0.0202511150
    5    3    4    4        0.0000000946
    6    3    1    1        0.0000002952
    6    3    2    1       -0.0000000148
    6    3    3    1       -0.0022166258
    6    3    4    1       -0.0000000072
    6    3    5    1        0.0000000937
    6    3    6    1       -0.0000001080
    6    3    2    2        0.0000000146
    6    3    3    2       -0.0090904648
    6    3    4    2       -0.0000000399
    6    3    5    2        0.0000003552
    6    3    6    2       -0.0000003531
    6    3    3    3        0.0000002643
    6    3    4    3       -0.0011974909
    6    3    5    3       -0.0189187754
    6    3    6    3        0.0200086809
    6    3    4    4        0.0000000942
    6    3    5    4        0.0000000754
    6    3    5    5        0.0000001210
    7    3    1    1        0.0000003905
    7    3    2    1       -0.0000000849
    7    3    3    1       -0.0079296128
    7    3    4    1        0.0000001118
    7    3    5    1        0.0000000018
    7    3    6    1        0.0000000101
    7    3    7    1       -0.0000001683
    7    3    2    2       -0.0000004386
    7    3    3    2       -0.0216568436
    7    3    4    2        0.0000002996
    7    3    5    2       -0.0000000062
    7    3    6    2        0.0000000474
    7    3    7    2       -0.0000002169
    7    3    3    3        0.0000004599
    7    3    4    3       -0.0204928925
    7    3    5    3        0.0005741007
    7    3    6    3        0.0013234535
    7    3    7    3        0.0250650628
    7    3    4    4        0.0000003255
    7    3    5    4       -0.0000000079
    7    3    6    4       -0.0000000242
    7    3    5    5        0.0000000838
    7    3    6    5       -0.0000001135
    7    3    6    6        0.0000000989
    8    3    1    1       -0.5359953680
    8    3    2    1       -0.0010215892
    8    3    3    1        0.0000002007
    8    3    4    1        0.0040967799
    8    3    5    1       -0.0012841798
    8    3    6    1       -0.0018022773
    8    3    7    1       -0.0071151526
    8    3    8    1       -0.0000002688
    8    3    2    2       -0.2187225636
    8    3    3    2        0.0000006782
    8    3    4    2        0.0088672941
    8    3    5    2        0.0086024382
    8    3    6    2        0.0140033841
    8    3    7    2        0.0066696415
    8    3    8    2       -0.0000003991
    8    3    3    3       -0.2128515627
    8    3    4    3        0.0000000067
    8    3    5    3       -0.0000000831
    8    3    6    3       -0.0000001513
    8    3    7    3       -0.0000002444
    8    3    8    3        0.1653634348
    8    3    4    4       -0.1419905818
    8    3    5    4       -0.0035851910
    8    3    6    4       -0.0006869236
    8    3    7    4        0.1249796778
    8    3    5    5       -0.1044617969
    8    3    6    5        0.0984983307
    8    3    7    5        0.0011596702
    8    3    6    6       -0.1171133411
    8    3    7    6        0.0022818709
    8    3    7    7       -0.1666364391
    4    4    1    1        0.9079034480
    4    4    2    1        0.0010035189
    4    4    3    1        0.0000000610
    4    4    4    1        0.0090793901
    4    4    2    2        0.6361463899
    4    4    3    2        0.0000000312
    4    4    4    2        0.0804909731
    4    4    3    3        0.6371483295
    4    4    4    3       -0.0000005134
    4    4    4    4        0.7728507241
    5    4    1    1        0.0138789012
    5    4    2    1        0.0001204486
    5    4    3    1        0.0000000009
    5    4    4    1       -0.0003798837
    5    4    5    1        0.0026328924
    5    4    2    2        0.0074025204
    5    4    3    2       -0.0000000044
    5    4    4    2       -0.0021848061
    5    4    5    2        0.0098429297
    5    4    3    3        0.0067161459
    5    4    4    3        0.0000000127
    5    4    5    3       -0.0000000649
    5    4    4    4        0.0050220483
    5    4    5    4        0.0191111375
    6    4    1    1        0.0050016064
    6    4    2    1        0.0005388940
    6    4    3    1       -0.0000000030
    6    4    4    1       -0.0012196214
    6    4    5    1       -0.0029406573
    6    4    6    1        0.0033968585
    6    4    2    2        0.0079322255
    6    4    3    2       -0.0000000290
    6    4    4    2       -0.0027948147
    6    4    5    2       -0.0135217634
    6    4    6    2        0.0120932051
    6    4    3    3        0.0032914665
    6    4    4    3        0.0000000180
    6    4    5    3        0.0000000885
    6    4    6    3       -0.0000000799
    6    4    4    4        0.0050314559
    6    4    5    4       -0.0181314154
    6    4    6    4        0.0193628146
    6    4    5    5       -0.0048668225
    7    4    1    1       -0.4747310344
    7    4    2    1        0.0008250099
    7    4    3    1       -0.0000000675
    7    4    4    1       -0.0039110008
    7    4    5    1       -0.0012943278
    7    4    6    1       -0.0017329835
    7    4    7    1        0.0028309155
    7    4    2    2       -0.2126881403
    7    4    3    2        0.0000002280
    7    4    4    2        0.0139284766
    7    4    5    2        0.0063900383
    7    4    6    2        0.0130723467
    7    4    7    2        0.0167045574
    7    4    3    3       -0.1841015226
    7    4    4    3       -0.0000000418
    7    4    5    3       -0.0000000379
    7    4    6    3       -0.0000000845
    7    4    7    3       -0.0000001432
    7    4    4    4       -0.0987027202
    7    4    5    4       -0.0039519008
    7    4    6    4        0.0030736766
    7    4    7    4        0.2125343739
    7    4    5    5       -0.1080525408
    7    4    6    5        0.0899747347
    7    4    6    6       -0.1186584221
    8    4    1    1       -0.0000005193
    8    4    2    1       -0.0000000434
    8    4    3    1       -0.0024036765
    8    4    4    1        0.0000000547
    8    4    5    1        0.0000000002
    8    4    6    1        0.0000000017
    8    4    7    1       -0.0000000807
    8    4    8    1        0.0024307344
    8    4    2    2       -0.0000002276
    8    4    3    2        0.0054573586
    8    4    4    2        0.0000000314
    8    4    5    2        0.0000000171
    8    4    6    2        0.0000000212
    8    4    7    2       -0.0000000128
    8    4    8    2        0.0032455913
    8    4    3    3       -0.0000002939
    8    4    4    3       -0.0013569921
    8    4    5    3       -0.0002651808
    8    4    6    3        0.0002989356
    8    4    7    3        0.0155617908
    8    4    8    3        0.0000000578
    8    4    4    4       -0.0000002780
    8    4    5    4       -0.0000000106
    8    4    6    4       -0.0000000110
    8    4    7    4        0.0000000506
    8    4    8    4        0.0186938351
    8    4    5    5       -0.0000001214
    8    4    6    5        0.0000001334
    8    4    7    5        0.0000000102
    8    4    6    6       -0.0000001325
    8    4    7    6        0.0000000012
    8    4    7    7       -0.0000002512
    5    5    1    1        0.6763289989
    5    5    2    1        0.0020745854
    5    5    3    1        0.0000000341
    5    5    4    1       -0.0015438994
    5    5    5    1        0.0006225145
    5    5    2    2        0.5221053604
    5    5    3    2       -0.0000002234
    5    5    4    2       -0.0002965394
    5    5    5    2        0.0120104286
    5    5    3    3        0.4859922980
    5    5    4    3       -0.0000000111
    5    5    5    3       -0.0000000821
    5    5    4    4        0.4512651909
    5    5    5    4        0.0031513057
[...]
    6    5    5    1       -0.0013253852
    6    5    6    1       -0.0015417264
    6    5    2    2       -0.2526731044
    6    5    3    2        0.0000001413
    6    5    4    2       -0.0100227850
    6    5    5    2        0.0262278732
    6    5    6    2        0.0067609116
    6    5    3    3       -0.2299547950
    6    5    4    3        0.0000000757
    6    5    5    3       -0.0000001624
    6    5    6    3       -0.0000000363
    6    5    4    4       -0.2104219085
    6    5    5    4       -0.0058264363
    6    5    6    4       -0.0067574472
    6    5    5    5       -0.0583855797
    6    5    6    5        0.2293472408
    7    5    1    1       -0.0032328546
    7    5    2    1        0.0000359017
    7    5    3    1       -0.0000000008
    7    5    4    1        0.0002166850
    7    5    5    1       -0.0042788327
    7    5    6    1        0.0049661111
    7    5    7    1       -0.0004441311
    7    5    2    2       -0.0004084627
    7    5    3    2       -0.0000000002
    7    5    4    2        0.0017114665
    7    5    5    2       -0.0139513002
    7    5    6    2        0.0142488285
    7    5    7    2       -0.0017985896
    7    5    3    3       -0.0003926208
    7    5    4    3       -0.0000000109
    7    5    5    3        0.0000000897
    7    5    6    3       -0.0000000928
    7    5    7    3        0.0000000119
    7    5    4    4       -0.0005954474
    7    5    5    4       -0.0109668335
    7    5    6    4        0.0122314099
    7    5    7    4        0.0015261875
    7    5    5    5       -0.0028694660
    7    5    6    5       -0.0020339066
    7    5    7    5        0.0137766139
    7    5    6    6       -0.0044980918
    8    5    1    1       -0.0000004589
    8    5    2    1        0.0000000002
    8    5    3    1        0.0005391917
    8    5    4    1        0.0000000070
    8    5    5    1        0.0000000481
    8    5    6    1       -0.0000000559
    8    5    7    1       -0.0000000094
    8    5    8    1       -0.0008132929
    8    5    2    2       -0.0000001961
    8    5    3    2        0.0040685947
    8    5    4    2        0.0000000201
    8    5    5    2        0.0000000061
    8    5    6    2       -0.0000000052
    8    5    7    2       -0.0000000042
    8    5    8    2       -0.0007387133
    8    5    3    3       -0.0000002666
    8    5    4    3        0.0001949525
    8    5    5    3       -0.0048172704
    8    5    6    3        0.0068283851
    8    5    7    3       -0.0000734523
    8    5    8    3        0.0000001134
    8    5    4    4       -0.0000001662
    8    5    5    4       -0.0000000093
    8    5    6    4        0.0000000075
    8    5    7    4        0.0000001024
    8    5    8    4        0.0006903410
    8    5    5    5       -0.0000001572
    8    5    6    5        0.0000001054
    8    5    7    5       -0.0000000166
    8    5    8    5        0.0100213906
    8    5    6    6       -0.0000001032
    8    5    7    6        0.0000000212
    8    5    7    7       -0.0000001758
    6    6    1    1        0.7158344590
    6    6    2    1        0.0020374973
    6    6    3    1        0.0000000437
    6    6    4    1       -0.0017327635
    6    6    5    1        0.0030375376
    6    6    6    1       -0.0019959432
    6    6    2    2        0.5213684544
    6    6    3    2       -0.0000002169
    6    6    4    2        0.0010183858
    6    6    5    2        0.0177568476
    6    6    6    2       -0.0258027925
    6    6    3    3        0.4864163866
    6    6    4    3       -0.0000000212
    6    6    5    3       -0.0000001167
    6    6    6    3        0.0000001669
    6    6    4    4        0.4496677352
    6    6    5    4        0.0023447282
    6    6    6    4       -0.0054013125
    6    6    5    5        0.5016437709
    6    6    6    5       -0.0416960987
    6    6    6    6        0.5280707123
    7    6    1    1       -0.0063879010
    7    6    2    1       -0.0007975021
    7    6    3    1        0.0000000042
    7    6    4    1        0.0017086872
    7    6    5    1        0.0048496605
    7    6    6    1       -0.0054627595
    7    6    7    1       -0.0025100859
    7    6    2    2       -0.0100720026
    7    6    3    2        0.0000000557
    7    6    4    2        0.0078153175
    7    6    5    2        0.0153773623
    7    6    6    2       -0.0150917253
    7    6    7    2       -0.0045283446
    7    6    3    3       -0.0018178333
    7    6    4    3       -0.0000000495
    7    6    5    3       -0.0000001005
    7    6    6    3        0.0000000990
    7    6    7    3        0.0000000333
    7    6    4    4        0.0062308714
    7    6    5    4        0.0129026636
    7    6    6    4       -0.0141922580
    7    6    7    4        0.0054442360
    7    6    5    5       -0.0024466912
    7    6    6    5       -0.0008093226
    7    6    7    5       -0.0144578704
    7    6    6    6       -0.0017683641
    7    6    7    6        0.0170137586
    8    6    1    1       -0.0000001402
    8    6    2    1        0.0000000159
    8    6    3    1        0.0022165994
    8    6    4    1        0.0000000064
    8    6    5    1       -0.0000000569
    8    6    6    1        0.0000000633
    8    6    7    1       -0.0000000116
    8    6    8    1       -0.0032050193
    8    6    2    2        0.0000000147
    8    6    3    2        0.0095976918
    8    6    4    2        0.0000000293
    8    6    5    2       -0.0000000359
    8    6    6    2        0.0000000596
    8    6    7    2       -0.0000000293
    8    6    8    2       -0.0037297009
    8    6    3    3       -0.0000002311
    8    6    4    3        0.0016437183
    8    6    5    3        0.0083679207
    8    6    6    3       -0.0097896520
    8    6    7    3       -0.0010372984
    8    6    8    3        0.0000000665
    8    6    4    4       -0.0000000803
    8    6    5    4        0.0000000003
    8    6    6    4       -0.0000000083
    8    6    7    4        0.0000000222
    8    6    8    4        0.0005915559
    8    6    5    5        0.0000000463
    8    6    6    5        0.0000001530
    8    6    7    5        0.0000000232
    8    6    8    5       -0.0077402644
    8    6    6    6        0.0000000501
    8    6    7    6       -0.0000000251
    8    6    8    6        0.0101855694
    8    6    7    7       -0.0000000820
    7    7    1    1        1.0489002060
    7    7    2    1       -0.0025805871
    7    7    3    1        0.0000000977
    7    7    4    1        0.0089616003
    7    7    5    1        0.0021315860
    7    7    6    1        0.0033406295
    7    7    7    1       -0.0136730202
    7    7    2    2        0.6293928211
    7    7    3    2       -0.0000000246
    7    7    4    2        0.0709618052
    7    7    5    2       -0.0163540740
    7    7    6    2       -0.0170634579
    7    7    7    2       -0.0348532257
    7    7    3    3        0.6339132624
    7    7    4    3       -0.0000004833
    7    7    5    3        0.0000000984
    7    7    6    3        0.0000001105
    7    7    7    3        0.0000003608
    7    7    4    4        0.7545068266
    7    7    5    4        0.0053104021
    7    7    6    4        0.0062244164
    7    7    7    4       -0.0957427469
    7    7    5    5        0.4446905888
    7    7    6    5       -0.2150027602
    7    7    7    5       -0.0005648914
    7    7    6    6        0.4476172561
    7    7    7    6        0.0068298473
    7    7    7    7        0.7936916733
    8    7    1    1       -0.0000000236
    8    7    2    1        0.0000000796
    8    7    3    1        0.0074768924
    8    7    4    1       -0.0000000864
    8    7    5    1        0.0000000015
    8    7    6    1       -0.0000000101
    8    7    7    1        0.0000001261
    8    7    8    1       -0.0102432993
    8    7    2    2        0.0000004650
    8    7    3    2        0.0246337398
    8    7    4    2       -0.0000000771
    8    7    5    2        0.0000000042
    8    7    6    2       -0.0000000380
    8    7    7    2        0.0000001211
    8    7    8    2       -0.0066675522
    8    7    3    3       -0.0000004046
    8    7    4    3        0.0275918124
    8    7    5    3        0.0000768673
    8    7    6    3       -0.0011614224
    8    7    7    3       -0.0167959548
    8    7    8    3        0.0000000790
    8    7    4    4       -0.0000001360
    8    7    5    4        0.0000000187
    8    7    6    4        0.0000000035
    8    7    7    4        0.0000000282
    8    7    8    4       -0.0019471367
    8    7    5    5       -0.0000000170
    8    7    6    5        0.0000000227
    8    7    7    5       -0.0000000143
    8    7    8    5        0.0006136066
    8    7    6    6       -0.0000000170
    8    7    7    6       -0.0000000136
    8    7    8    6        0.0019914663
    8    7    7    7       -0.0000001289
    8    7    8    7        0.0298378235
    8    8    1    1        1.0335842274
    8    8    2    1       -0.0007672317
    8    8    3    1       -0.0000002474
    8    8    4    1       -0.0045547808
    8    8    5    1        0.0019336192
    8    8    6    1        0.0025909805
    8    8    7    1        0.0071872124
    8    8    8    1        0.0000003687
    8    8    2    2        0.6325974562
    8    8    3    2       -0.0000013268
    8    8    4    2        0.0109075768
    8    8    5    2       -0.0138983652
    8    8    6    2       -0.0196931182
    8    8    7    2       -0.0130377891
    8    8    8    2        0.0000003847
    8    8    3    3        0.6523933865
    8    8    4    3       -0.0000003069
    8    8    5    3        0.0000001184
    8    8    6    3        0.0000001934
    8    8    7    3        0.0000003317
    8    8    8    3       -0.1814653684
    8    8    4    4        0.5702947903
    8    8    5    4        0.0058384875
    8    8    6    4        0.0031861245
    8    8    7    4       -0.1449708702
    8    8    8    4       -0.0000002956
    8    8    5    5        0.4348346408
    8    8    6    5       -0.1904407885
    8    8    7    5       -0.0006562026
    8    8    8    5       -0.0000002389
    8    8    6    6        0.4361112658
    8    8    7    6       -0.0005708056
    8    8    8    6       -0.0000002054
    8    8    7    7        0.5851658671
    8    8    8    7       -0.0000003279
    8    8    8    8        0.6037998550
 end_two_electron_integrals
 enrep_tce =    6.6670462826983243     
  EHF(A)             =       -75.80709636
  EHF(total)         =       -75.80709636
  Shift (HFtot-HFA)  =         0.00000000
 Cpu & wall time / sec            1.1            1.1
 T1-number-of-tasks                   15

 t1 file size   =               15
 t1 file name   = ./H2O.t1
 t1 file handle =       -998
 T2-number-of-boxes                  315

 t2 file size   =              315
 t2 file name   = ./H2O.t2
 t2 file handle =       -996
CCSD iterations
 ---------------------------------------------------------
 Iter          Residuum       Correlation     Cpu    Wall 
 ---------------------------------------------------------
NEW TASK SCHEDULING
CCSD_T1_NTS --- OK
CCSD_T2_NTS --- OK
    1   0.6703393945480  -0.2878986714015     2.0     2.8
    2   1.0634788560803   0.0377408474752     2.0     2.8
    3   1.6890352688692  -0.5199176444028     2.0     2.8
    4   2.7272441254013   0.3585928772698     1.9     2.8
    5   4.0146579491288  -0.9492140588222     2.1     2.8
 MICROCYCLE DIIS UPDATE:                    5                    5
    6   0.0218357354406  -0.1779613620128     2.0     2.8
    7   0.0332052326724  -0.1782409878488     2.2     2.8
    8   0.0637285200432  -0.1823131092554     2.0     2.8
    9   0.1295635225726  -0.1765375166719     2.0     2.8
   10   0.2688238554193  -0.1854822641624     1.9     2.8
 MICROCYCLE DIIS UPDATE:                   10                    5
   11   0.0018778886914  -0.1803670881706     2.0     2.8
   12   0.0016791455735  -0.1804442741690     2.0     2.8
   13   0.0023474619806  -0.1801666689273     2.1     2.8
   14   0.0041261455681  -0.1806129653502     2.0     2.8
   15   0.0077142551930  -0.1798962635317     2.0     2.8
 MICROCYCLE DIIS UPDATE:                   15                    5
   16   0.0001739746196  -0.1803435196955     2.0     2.8
   17   0.0001372635295  -0.1803344129027     1.9     2.8
   18   0.0002149356163  -0.1803900788619     2.1     2.8
   19   0.0003875711981  -0.1803068481109     2.1     2.8
   20   0.0007246416233  -0.1804458536041     2.2     2.8
 MICROCYCLE DIIS UPDATE:                   20                    5
   21   0.0000225676039  -0.1803605267551     1.9     2.8
   22   0.0000216124211  -0.1803614804984     2.0     2.8
   23   0.0000349756319  -0.1803577310197     2.1     2.8
   24   0.0000700445425  -0.1803637989449     2.1     2.8
   25   0.0001462493148  -0.1803538025110     1.9     2.8
 MICROCYCLE DIIS UPDATE:                   25                    5
   26   0.0000025095756  -0.1803598549638     2.0     2.8
   27   0.0000018012037  -0.1803599029426     2.1     2.8
   28   0.0000026972154  -0.1803606244908     2.0     2.8
   29   0.0000047883909  -0.1803596085522     2.0     2.8
   30   0.0000088662187  -0.1803613098656     2.0     2.8
 MICROCYCLE DIIS UPDATE:                   30                    5
   31   0.0000003689925  -0.1803602597056     2.0     2.8
   32   0.0000003946352  -0.1803602977102     2.0     2.8
   33   0.0000006651149  -0.1803602166986     2.0     2.8
   34   0.0000013274621  -0.1803603508147     2.0     2.8
   35   0.0000027515144  -0.1803601291031     2.1     2.8
 MICROCYCLE DIIS UPDATE:                   35                    5
   36   0.0000000393388  -0.1803602663302     2.1     2.8
 -----------------------------------------------------------------
 Iterations converged
 CCSD correlation energy / hartree =        -0.180360266330200
 CCSD total energy / hartree       =       -75.987456631155780

 Singles contributions

 Doubles contributions
     6a   (alpha)     6a   (beta ) ---     5a   (alpha)     5a   (beta )       -0.4947943901
     6a   (alpha)     7a   (beta ) ---     5a   (alpha)     4a   (beta )       -0.0279680023
     6a   (alpha)     8a   (beta ) ---     5a   (alpha)     3a   (beta )       -0.0270814857
     7a   (alpha)     8a   (alpha) ---     3a   (alpha)     4a   (alpha)        0.0322718131
     7a   (alpha)     6a   (beta ) ---     4a   (alpha)     5a   (beta )       -0.0279680023
     7a   (alpha)     7a   (beta ) ---     4a   (alpha)     4a   (beta )       -0.0920595302
     7a   (alpha)     8a   (beta ) ---     4a   (alpha)     3a   (beta )       -0.0419440810
     8a   (alpha)     6a   (beta ) ---     3a   (alpha)     5a   (beta )       -0.0270814857
     8a   (alpha)     7a   (beta ) ---     3a   (alpha)     4a   (beta )       -0.0419440810
     8a   (alpha)     8a   (beta ) ---     3a   (alpha)     3a   (beta )       -0.0587492723
 Ground state specification:
 exp(T)|Ref>~(1+T)|Ref>
 ------- a(p)+/a(q) strings ----------

 singles norm

 doubles norm

 Reference string
  0.89628568814757725      :(1a)+ (2a)+ (3a)+ (4a)+ (5a)+ (1b)+ (2b)+ (3b)+ (4b)+ (5b)+ |0>

 Singles strings

 Doubles strings
 -0.44347713043833958      :(6a)+ (6b)+ (5b)  (5a)  (1a)+ (2a)+ (3a)+ (4a)+ (5a)+ (1b)+ (2b)+ (3b)+ (4b)+ (5b)+ |0>
 -------------------------------------

 Parallel integral file used      16 records with       0 large values


 Task  times  cpu:       74.7s     wall:      103.2s


                                NWChem Input Module
                                -------------------


 Summary of allocated global arrays
-----------------------------------
  No active global arrays


MA_summarize_allocated_blocks: starting scan ...
MA_summarize_allocated_blocks: scan completed: 0 heap blocks, 0 stack blocks
MA usage statistics:

	allocation statistics:
					      heap	     stack
					      ----	     -----
	current number of blocks	         0	         0
	maximum number of blocks	        18	        42
	current total bytes		         0	         0
	maximum total bytes		  25775928	  38234424
	maximum total K-bytes		     25776	     38235
	maximum total M-bytes		        26	        39


                                     CITATION
                                     --------
                Please cite the following reference when publishing
                           results obtained with NWChem:

          E. Apra, E. J. Bylaska, W. A. de Jong, N. Govind, K. Kowalski,
       T. P. Straatsma, M. Valiev, H. J. J. van Dam, Y. Alexeev, J. Anchell,
       V. Anisimov, F. W. Aquino, R. Atta-Fynn, J. Autschbach, N. P. Bauman,
     J. C. Becca, D. E. Bernholdt, K. Bhaskaran-Nair, S. Bogatko, P. Borowski,
         J. Boschen, J. Brabec, A. Bruner, E. Cauet, Y. Chen, G. N. Chuev,
      C. J. Cramer, J. Daily, M. J. O. Deegan, T. H. Dunning Jr., M. Dupuis,
   K. G. Dyall, G. I. Fann, S. A. Fischer, A. Fonari, H. Fruchtl, L. Gagliardi,
      J. Garza, N. Gawande, S. Ghosh, K. Glaesemann, A. W. Gotz, J. Hammond,
       V. Helms, E. D. Hermes, K. Hirao, S. Hirata, M. Jacquelin, L. Jensen,
   B. G. Johnson, H. Jonsson, R. A. Kendall, M. Klemm, R. Kobayashi, V. Konkov,
      S. Krishnamoorthy, M. Krishnan, Z. Lin, R. D. Lins, R. J. Littlefield,
      A. J. Logsdail, K. Lopata, W. Ma, A. V. Marenich, J. Martin del Campo,
   D. Mejia-Rodriguez, J. E. Moore, J. M. Mullin, T. Nakajima, D. R. Nascimento,
    J. A. Nichols, P. J. Nichols, J. Nieplocha, A. Otero-de-la-Roza, B. Palmer,
    A. Panyala, T. Pirojsirikul, B. Peng, R. Peverati, J. Pittner, L. Pollack,
   R. M. Richard, P. Sadayappan, G. C. Schatz, W. A. Shelton, D. W. Silverstein,
   D. M. A. Smith, T. A. Soares, D. Song, M. Swart, H. L. Taylor, G. S. Thomas,
            V. Tipparaju, D. G. Truhlar, K. Tsemekhman, T. Van Voorhis,
      A. Vazquez-Mayagoitia, P. Verma, O. Villa, A. Vishnu, K. D. Vogiatzis,
        D. Wang, J. H. Weare, M. J. Williamson, T. L. Windus, K. Wolinski,
        A. T. Wong, Q. Wu, C. Yang, Q. Yu, M. Zacharias, Z. Zhang, Y. Zhao,
                                and R. J. Harrison
                        "NWChem: Past, present, and future
                         J. Chem. Phys. 152, 184102 (2020)
                               doi:10.1063/5.0004997

                                      AUTHORS
                                      -------
  E. Apra, E. J. Bylaska, N. Govind, K. Kowalski, M. Valiev, D. Mejia-Rodriguez,
       A. Kunitsa, N. P. Bauman, A. Panyala, W. A. de Jong, T. P. Straatsma,
        H. J. J. van Dam, D. Wang, T. L. Windus, J. Hammond, J. Autschbach,
    K. Bhaskaran-Nair, J. Brabec, K. Lopata, S. A. Fischer, S. Krishnamoorthy,
     M. Jacquelin, W. Ma, M. Klemm, O. Villa, Y. Chen, V. Anisimov, F. Aquino,
    S. Hirata, M. T. Hackler, Eric Hermes, L. Jensen, J. E. Moore, J. C. Becca,
      V. Konjkov, T. Risthaus, M. Malagoli, A. Marenich, A. Otero-de-la-Roza,
        J. Mullin, P. Nichols, R. Peverati, J. Pittner, Y. Zhao, P.-D. Fan,
        A. Fonari, M. J. Williamson, R. J. Harrison, J. R. Rehr, M. Dupuis,
     D. Silverstein, D. M. A. Smith, J. Nieplocha, V. Tipparaju, M. Krishnan,
     B. E. Van Kuiken, A. Vazquez-Mayagoitia, M. Swart, Q. Wu, T. Van Voorhis,
     A. A. Auer, M. Nooijen, L. D. Crosby, E. Brown, G. Cisneros, G. I. Fann,
   H. Fruchtl, J. Garza, K. Hirao, R. A. Kendall, J. A. Nichols, K. Tsemekhman,
    K. Wolinski, J. Anchell, D. E. Bernholdt, P. Borowski, T. Clark, D. Clerc,
   H. Dachsel, M. J. O. Deegan, K. Dyall, D. Elwood, E. Glendening, M. Gutowski,
   A. C. Hess, J. Jaffe, B. G. Johnson, J. Ju, R. Kobayashi, R. Kutteh, Z. Lin,
   R. Littlefield, X. Long, B. Meng, T. Nakajima, S. Niu, L. Pollack, M. Rosing,
   K. Glaesemann, G. Sandrone, M. Stave, H. Taylor, G. Thomas, J. H. van Lenthe,
                               A. T. Wong, Z. Zhang.

 Total times  cpu:       82.6s     wall:      117.7s
