 argument  1 = input.nw
  NWChem w/ OpenMP: maximum threads =    1



============================== echo of input deck ==============================
 echo
 start H2O
 title "H2O"

 memory total 24 gb

 geometry units bohr
 symmetry c1
        O  0.00000000  0.00000000  0.00000000
        H  0.00000000  4.018721  0.00000000
        H  1.72558000 -0.64860000  0.00000000
 end

 basis spherical
   * library cc-pVTZ
 end

 mcscf
   active  8
   actelec 10
   multiplicity 1
   maxiter 40
   vectors input h2o.mos
   vectors output h2o.mos
 end

 task mcscf

 scf
   vectors input h2o.mos
   vectors output h2o-trash.mos
   noscf
 end

 tce
   2eorb
   2emet 13
   ccsd
   maxiter 300
 end

 set tce:print_integrals T
 set tce:qorb 8
 set tce:qela 5
 set tce:qelb 5

# set tce:qducc T
# set tce:nactv 3
# set tce:nonhf T
# set tce:ducc_model 6

 set tce:printtol 0.02

 task tce
================================================================================


                                         
                                         


             Northwest Computational Chemistry Package (NWChem) 7.0.1
             --------------------------------------------------------


                    Environmental Molecular Sciences Laboratory
                       Pacific Northwest National Laboratory
                                Richland, WA 99352

                              Copyright (c) 1994-2020
                       Pacific Northwest National Laboratory
                            Battelle Memorial Institute

             NWChem is an open-source computational chemistry package
                        distributed under the terms of the
                      Educational Community License (ECL) 2.0
             A copy of the license is included with this distribution
                              in the LICENSE.TXT file

                                  ACKNOWLEDGMENT
                                  --------------

            This software and its documentation were developed at the
            EMSL at Pacific Northwest National Laboratory, a multiprogram
            national laboratory, operated for the U.S. Department of Energy
            by Battelle under Contract Number DE-AC05-76RL01830. Support
            for this work was provided by the Department of Energy Office
            of Biological and Environmental Research, Office of Basic
            Energy Sciences, and the Office of Advanced Scientific Computing.


           Job information
           ---------------

    hostname        = WE46210
    program         = /home/baum612/code/nwchem/bin/LINUX64/nwchem
    date            = Thu May  2 12:24:25 2024

    compiled        = Tue_Apr_30_12:43:26_2024
    source          = /home/baum612/code/nwchem
    nwchem branch   = 7.0.0
    nwchem revision = nwchem_on_git-4191-g39d87d64de
    ga revision     = 5.8.1
    use scalapack   = F
    input           = input.nw
    prefix          = H2O.
    data base       = ./H2O.db
    status          = startup
    nproc           =        1
    time left       =     -1s



           Memory information
           ------------------

    heap     =  805306362 doubles =   6144.0 Mbytes
    stack    =  805306367 doubles =   6144.0 Mbytes
    global   = 1610612736 doubles =  12288.0 Mbytes (distinct from heap & stack)
    total    = 3221225465 doubles =  24576.0 Mbytes
    verify   = yes
    hardfail = no 


           Directory information
           ---------------------

  0 permanent = .
  0 scratch   = .




                                NWChem Input Module
                                -------------------


                                        H2O
                                        ---
 Turning off AUTOSYM since
 SYMMETRY directive was detected!


          ------
          auto-z
          ------
  autoz: The atoms group into disjoint clusters
 cluster   1:    1    3
 cluster   2:    2
 Connecting clusters   1   2 via atoms    1    2 r = 2.13
  autoz: regenerating connections with new bonds
  no constraints, skipping    0.0000000000000000     
  no constraints, skipping    0.0000000000000000     


                             Geometry "geometry" -> ""
                             -------------------------

 Output coordinates in a.u. (scale by  1.000000000 to convert to a.u.)

  No.       Tag          Charge          X              Y              Z
 ---- ---------------- ---------- -------------- -------------- --------------
    1 O                    8.0000    -0.17255800    -0.33701210     0.00000000
    2 H                    1.0000    -0.17255800     3.68170890     0.00000000
    3 H                    1.0000     1.55302200    -0.98561210     0.00000000

      Atomic Mass 
      ----------- 

      O                 15.994910
      H                  1.007825


 Effective nuclear repulsion energy (a.u.)       6.5313328570

            Nuclear Dipole moment (a.u.) 
            ----------------------------
        X                 Y               Z
 ---------------- ---------------- ----------------
    -0.0000000000     0.0000000000     0.0000000000



                                Z-matrix (autoz)
                                -------- 

 Units are Angstrom for bonds and degrees for angles

      Type          Name      I     J     K     L     M      Value
      ----------- --------  ----- ----- ----- ----- ----- ----------
    1 Stretch                  1     2                       2.12662
    2 Stretch                  1     3                       0.97551
    3 Bend                     2     1     3               110.59992


            XYZ format geometry
            -------------------
     3
 geometry
 O                    -0.09131377    -0.17833914     0.00000000
 H                    -0.09131377     1.94827659     0.00000000
 H                     0.82182391    -0.52156350     0.00000000

 ==============================================================================
                                internuclear distances
 ------------------------------------------------------------------------------
       center one      |      center two      | atomic units |       a.u.
 ------------------------------------------------------------------------------
    3 H                |   1 O                |     1.84345  |     1.84345
 ------------------------------------------------------------------------------
                         number of included internuclear distances:          1
 ==============================================================================





 Summary of "ao basis" -> "" (spherical)
 ------------------------------------------------------------------------------
       Tag                 Description            Shells   Functions and Types
 ---------------- ------------------------------  ------  ---------------------
 *                          cc-pVTZ                   on all atoms 


                      Basis "ao basis" -> "ao basis" (spherical)
                      -----
  O (Oxygen)
  ----------
            Exponent  Coefficients 
       -------------- ---------------------------------------------------------
  1 S  1.53300000E+04  0.000508
  1 S  2.29900000E+03  0.003929
  1 S  5.22400000E+02  0.020243
  1 S  1.47300000E+02  0.079181
  1 S  4.75500000E+01  0.230687
  1 S  1.67600000E+01  0.433118
  1 S  6.20700000E+00  0.350260
  1 S  6.88200000E-01 -0.008154

  2 S  1.53300000E+04 -0.000115
  2 S  2.29900000E+03 -0.000895
  2 S  5.22400000E+02 -0.004636
  2 S  1.47300000E+02 -0.018724
  2 S  4.75500000E+01 -0.058463
  2 S  1.67600000E+01 -0.136463
  2 S  6.20700000E+00 -0.175740
  2 S  6.88200000E-01  0.603418

  3 S  1.75200000E+00  1.000000

  4 S  2.38400000E-01  1.000000

  5 P  3.44600000E+01  0.015928
  5 P  7.74900000E+00  0.099740
  5 P  2.28000000E+00  0.310492

  6 P  7.15600000E-01  1.000000

  7 P  2.14000000E-01  1.000000

  8 D  2.31400000E+00  1.000000

  9 D  6.45000000E-01  1.000000

 10 F  1.42800000E+00  1.000000

  H (Hydrogen)
  ------------
            Exponent  Coefficients 
       -------------- ---------------------------------------------------------
  1 S  3.38700000E+01  0.006068
  1 S  5.09500000E+00  0.045308
  1 S  1.15900000E+00  0.202822

  2 S  3.25800000E-01  1.000000

  3 S  1.02700000E-01  1.000000

  4 P  1.40700000E+00  1.000000

  5 P  3.88000000E-01  1.000000

  6 D  1.05700000E+00  1.000000



 Summary of "ao basis" -> "ao basis" (spherical)
 ------------------------------------------------------------------------------
       Tag                 Description            Shells   Functions and Types
 ---------------- ------------------------------  ------  ---------------------
 O                          cc-pVTZ                 10       30   4s3p2d1f
 H                          cc-pVTZ                  6       14   3s2p1d



                            NWChem Direct MCSCF Module
                            --------------------------


                                        H2O


     -----------------------------------
       Basis functions:             58
       Inactive shells:              0
       Active shells:                8
       Active electrons:            10
       Symmetry:                    a       
       Multiplicity:                 1
       Orbital rotations:          400
     -----------------------------------

     -----------------------------------
       E2 extrapolation:             F
       Conjugacy:                    T
       Micro CI relax:               T
       Canonical orbitals:           T
       Maximum iterations:          40
       Converge threshold:    1.00E-04
       Conjugacy resets:            20
       Initial levelshift:        0.10
     -----------------------------------

 Loading old vectors from job with title :

H2O


   input molecular orbitals = ./h2o.mos
  output molecular orbtials = ./h2o.mos

       No. of determinants:          3136


  Starting Orbital Energies
   -20.609578    -1.304741    -0.669979    -0.546166    -0.408300    -0.160216
    -0.026242    -0.013145     0.291625     0.391235     0.617049     0.761642
     0.773389     0.833145     0.869605     0.917538     0.969563     1.303644
     1.355952     1.723225     1.790307     2.029382     2.038787     2.163684
     2.588020     2.767088     3.437186     3.448848     3.451390     3.451784
     3.476914     3.496681     3.549815     3.575138     3.744596     3.874805
     3.920378     3.962041     4.023848     4.070430     4.167271     4.398368
     4.446845     4.725636     5.142826     5.544114     5.561954     5.798722
     5.812314     6.711696     6.766055     6.815423     6.834873     6.945612
     7.045018     7.058909     7.521258    10.827825

  Orbital Symmetry Irreps
a    a    a    a    a    a    a    a    a    a    a    a    a    a    a   
a    a    a    a    a    a    a    a    a    a    a    a    a    a    a   
a    a    a    a    a    a    a    a    a    a    a    a    a    a    a   
a    a    a    a    a    a    a    a    a    a    a    a    a   

 Integral file          = ./H2O.aoints.0
 Record size in doubles =  65536        No. of integs per rec  =  43688
 Max. records in memory =     49        Max. records in file   = 250653
 No. of bits per label  =      8        No. of bits per value  =     64


 #quartets = 3.203D+04 #integrals = 6.426D+05 #direct =  0.0% #cached =100.0%




          %%%%% MacroIteration   1 %%%%%


          Number of sigma calls:       23
                       o<<<<< (aa):             0.00
                       o<<<<< (bb):             0.00
                       o<<<<< (ab):             0.09
                       o<<<<< (total)           0.10
                       o<<<<< (aa) ff           0.00
                       o<<<<< (aa) gop          0.00
                       o<<<<< (aa) dot          0.00
                       o<<<<< (ab) str          0.00
                       o<<<<< (ab) gath         0.00
                       o<<<<< (ab) dotab        0.00
                       o<<<<< (ab) scat         0.00
                       o<<<<< (ab) sync         0.00
                       o<<<<< Density           0.01
                       o<<<<< Density one       0.00
                       o<<<<< Density two       0.00
                       o<<<<< Density ab        0.01
                       o<<<<< Spin adapt        0.23
                       o<<<<< Symm adapt        0.00

                       o<<<<< (ab) max sync:      0.00

           >>>| Valence CI:            -82.512865515148
           >>>| MCSCF energy:          -75.981532658194
           >>>| Gradient norm:          0.266958146D-02

                              ----- Line search ------

        step       energy         lsg     num-lsg   num-lsh   lsrat    time
      ------- ---------------- --------- --------- --------- ------- --------
       0.0000     -75.98153266 -1.61D-06  0.00D+00  0.00D+00 0.0D+00      0.9

          Number of sigma calls:       21
                       o<<<<< (aa):             0.00
                       o<<<<< (bb):             0.01
                       o<<<<< (ab):             0.07
                       o<<<<< (total)           0.08
                       o<<<<< (aa) ff           0.00
                       o<<<<< (aa) gop          0.00
                       o<<<<< (aa) dot          0.00
                       o<<<<< (ab) str          0.00
                       o<<<<< (ab) gath         0.00
                       o<<<<< (ab) dotab        0.00
                       o<<<<< (ab) scat         0.00
                       o<<<<< (ab) sync         0.00
                       o<<<<< Density           0.01
                       o<<<<< Density one       0.00
                       o<<<<< Density two       0.00
                       o<<<<< Density ab        0.01
                       o<<<<< Spin adapt        0.36
                       o<<<<< Symm adapt        0.00

                       o<<<<< (ab) max sync:      0.00
       1.0000     -75.98153359 -2.46D-07 -2.46D-07  1.36D-06 1.5D-01      1.5

          Number of sigma calls:       16
                       o<<<<< (aa):             0.00
                       o<<<<< (bb):             0.00
                       o<<<<< (ab):             0.06
                       o<<<<< (total)           0.06
                       o<<<<< (aa) ff           0.00
                       o<<<<< (aa) gop          0.00
                       o<<<<< (aa) dot          0.00
                       o<<<<< (ab) str          0.00
                       o<<<<< (ab) gath         0.00
                       o<<<<< (ab) dotab        0.00
                       o<<<<< (ab) scat         0.00
                       o<<<<< (ab) sync         0.00
                       o<<<<< Density           0.01
                       o<<<<< Density one       0.00
                       o<<<<< Density two       0.00
                       o<<<<< Density ab        0.01
                       o<<<<< Spin adapt        0.32
                       o<<<<< Symm adapt        0.00

                       o<<<<< (ab) max sync:      0.00
       1.1801     -75.98153361  2.34D-10  2.26D-10  1.36D-06 1.5D-04      2.0
     --- Orbitals canonicalized ---



          %%%%% MacroIteration   2 %%%%%


          Number of sigma calls:       23
                       o<<<<< (aa):             0.00
                       o<<<<< (bb):             0.00
                       o<<<<< (ab):             0.08
                       o<<<<< (total)           0.09
                       o<<<<< (aa) ff           0.00
                       o<<<<< (aa) gop          0.00
                       o<<<<< (aa) dot          0.00
                       o<<<<< (ab) str          0.00
                       o<<<<< (ab) gath         0.00
                       o<<<<< (ab) dotab        0.00
                       o<<<<< (ab) scat         0.00
                       o<<<<< (ab) sync         0.00
                       o<<<<< Density           0.01
                       o<<<<< Density one       0.00
                       o<<<<< Density two       0.00
                       o<<<<< Density ab        0.01
                       o<<<<< Spin adapt        0.39
                       o<<<<< Symm adapt        0.00

                       o<<<<< (ab) max sync:      0.00

           >>>| Valence CI:            -82.512866464623
           >>>| MCSCF energy:          -75.981533607669
           >>>| Gradient norm:          0.399047256D-03
     --- Warning:    3 Hessian diagonals < 0.05 ---
     --- Conjugacy reset ---

                              ----- Line search ------

        step       energy         lsg     num-lsg   num-lsh   lsrat    time
      ------- ---------------- --------- --------- --------- ------- --------
       0.0000     -75.98153361 -4.55D-08  0.00D+00  0.00D+00 0.0D+00      2.6

          Number of sigma calls:       15
                       o<<<<< (aa):             0.00
                       o<<<<< (bb):             0.00
                       o<<<<< (ab):             0.04
                       o<<<<< (total)           0.05
                       o<<<<< (aa) ff           0.00
                       o<<<<< (aa) gop          0.00
                       o<<<<< (aa) dot          0.00
                       o<<<<< (ab) str          0.00
                       o<<<<< (ab) gath         0.00
                       o<<<<< (ab) dotab        0.00
                       o<<<<< (ab) scat         0.00
                       o<<<<< (ab) sync         0.00
                       o<<<<< Density           0.00
                       o<<<<< Density one       0.00
                       o<<<<< Density two       0.00
                       o<<<<< Density ab        0.00
                       o<<<<< Spin adapt        0.20
                       o<<<<< Symm adapt        0.00

                       o<<<<< (ab) max sync:      0.00
       1.0000     -75.98153363 -7.82D-09 -7.82D-09  3.77D-08 1.7D-01      2.9

          Number of sigma calls:       12
                       o<<<<< (aa):             0.00
                       o<<<<< (bb):             0.00
                       o<<<<< (ab):             0.04
                       o<<<<< (total)           0.05
                       o<<<<< (aa) ff           0.00
                       o<<<<< (aa) gop          0.00
                       o<<<<< (aa) dot          0.00
                       o<<<<< (ab) str          0.00
                       o<<<<< (ab) gath         0.00
                       o<<<<< (ab) dotab        0.00
                       o<<<<< (ab) scat         0.00
                       o<<<<< (ab) sync         0.00
                       o<<<<< Density           0.01
                       o<<<<< Density one       0.00
                       o<<<<< Density two       0.00
                       o<<<<< Density ab        0.01
                       o<<<<< Spin adapt        0.19
                       o<<<<< Symm adapt        0.00

                       o<<<<< (ab) max sync:      0.00
       1.2077     -75.98153364  2.30D-12  2.11D-12  3.77D-08 5.1D-05      3.3



          %%%%% MacroIteration   3 %%%%%


          Number of sigma calls:        1
                       o<<<<< (aa):             0.00
                       o<<<<< (bb):             0.00
                       o<<<<< (ab):             0.00
                       o<<<<< (total)           0.00
                       o<<<<< (aa) ff           0.00
                       o<<<<< (aa) gop          0.00
                       o<<<<< (aa) dot          0.00
                       o<<<<< (ab) str          0.00
                       o<<<<< (ab) gath         0.00
                       o<<<<< (ab) dotab        0.00
                       o<<<<< (ab) scat         0.00
                       o<<<<< (ab) sync         0.00
                       o<<<<< Density           0.01
                       o<<<<< Density one       0.00
                       o<<<<< Density two       0.00
                       o<<<<< Density ab        0.01
                       o<<<<< Spin adapt        0.00
                       o<<<<< Symm adapt        0.00

                       o<<<<< (ab) max sync:      0.00

           >>>| Valence CI:            -82.512866492087
           >>>| MCSCF energy:          -75.981533635132
           >>>| Gradient norm:          0.878752219D-04




     ==============================
            MCSCF Converged
     ==============================



          Canonical Eigenvalues

              1      
    1  -20.6097
    2   -1.3049
    3   -0.6701
    4   -0.5463
    5   -0.4068
    6   -0.1618
    7   -0.0262
    8   -0.0131
    9    0.2913
   10    0.3918
   11    0.6173
   12    0.7594
   13    0.7735
   14    0.8326
   15    0.8687
   16    0.9169
   17    0.9699
   18    1.3020
   19    1.3555
   20    1.7228
   21    1.7878
   22    2.0294
   23    2.0386
   24    2.1631
   25    2.5866
   26    2.7664
   27    3.4375
   28    3.4498
   29    3.4517
   30    3.4521
   31    3.4770
   32    3.4958
   33    3.5492
   34    3.5717
   35    3.7439
   36    3.8747
   37    3.9196
   38    3.9616
   39    4.0234
   40    4.0667
   41    4.1666
   42    4.3981
   43    4.4468
   44    4.7254
   45    5.1431
   46    5.5437
   47    5.5608
   48    5.7985
   49    5.8114
   50    6.7111
   51    6.7643
   52    6.8148
   53    6.8347
   54    6.9425
   55    7.0436
   56    7.0588
   57    7.5205
   58   10.8265


          Converged CI vector

   Index           Coefficient          Config. Occupation
         1          0.82368660          1  2  3  4  5  1  2  3  4  5
         2          0.20744582          1  2  3  4  5  1  2  3  4  6
        23          0.05061600          1  2  3  4  5  1  2  3  5  8
         9          0.03267606          1  2  3  4  5  1  2  4  5  7
        41          0.02378839          1  2  3  4  5  1  2  5  7  8
        57          0.20744582          1  2  3  4  6  1  2  3  4  5
        58         -0.45117426          1  2  3  4  6  1  2  3  4  6
        83         -0.03276282          1  2  3  4  6  1  2  3  6  8
        60          0.02052618          1  2  3  4  6  1  2  4  5  6
        69         -0.02225835          1  2  3  4  6  1  2  4  6  7
      1233          0.05061600          1  2  3  5  8  1  2  3  4  5
      1255         -0.04626288          1  2  3  5  8  1  2  3  5  8
      1241         -0.02917848          1  2  3  5  8  1  2  4  5  7
      1458         -0.03276282          1  2  3  6  8  1  2  3  4  6
      1483          0.02771984          1  2  3  6  8  1  2  3  6  8
       170          0.02052618          1  2  4  5  6  1  2  3  4  6
       449          0.03267606          1  2  4  5  7  1  2  3  4  5
       471         -0.02917848          1  2  4  5  7  1  2  3  5  8
       457         -0.06179514          1  2  4  5  7  1  2  4  5  7
       458          0.02595723          1  2  4  5  7  1  3  4  5  7
       674         -0.02225835          1  2  4  6  7  1  2  3  4  6
       685          0.03544436          1  2  4  6  7  1  2  4  6  7
      2241          0.02378839          1  2  5  7  8  1  2  3  4  5
       513          0.02595723          1  3  4  5  7  1  2  4  5  7
       514         -0.02439705          1  3  4  5  7  1  3  4  5  7

          Number of sigma calls:        1
                       o<<<<< (aa):             0.00
                       o<<<<< (bb):             0.00
                       o<<<<< (ab):             0.00
                       o<<<<< (total)           0.00
                       o<<<<< (aa) ff           0.00
                       o<<<<< (aa) gop          0.00
                       o<<<<< (aa) dot          0.00
                       o<<<<< (ab) str          0.00
                       o<<<<< (ab) gath         0.00
                       o<<<<< (ab) dotab        0.00
                       o<<<<< (ab) scat         0.00
                       o<<<<< (ab) sync         0.00
                       o<<<<< Density           0.01
                       o<<<<< Density one       0.00
                       o<<<<< Density two       0.00
                       o<<<<< Density ab        0.01
                       o<<<<< Spin adapt        0.00
                       o<<<<< Symm adapt        0.00

                       o<<<<< (ab) max sync:      0.00



          Natural orbital occupation numbers

              1      
    1    2.0000
    2    1.9986
    3    1.9844
    4    1.9744
    5    1.5110
    6    0.4897
    7    0.0266
    8    0.0153


          Number of sigma calls:       23
                       o<<<<< (aa):             0.00
                       o<<<<< (bb):             0.00
                       o<<<<< (ab):             0.06
                       o<<<<< (total)           0.06
                       o<<<<< (aa) ff           0.00
                       o<<<<< (aa) gop          0.00
                       o<<<<< (aa) dot          0.00
                       o<<<<< (ab) str          0.00
                       o<<<<< (ab) gath         0.00
                       o<<<<< (ab) dotab        0.00
                       o<<<<< (ab) scat         0.00
                       o<<<<< (ab) sync         0.00
                       o<<<<< Density           0.01
                       o<<<<< Density one       0.00
                       o<<<<< Density two       0.00
                       o<<<<< Density ab        0.01
                       o<<<<< Spin adapt        0.27
                       o<<<<< Symm adapt        0.00

                       o<<<<< (ab) max sync:      0.00


       Final MCSCF results 
       ------------------- 

       Total MCSCF energy =    -75.981533635132
            Gradient norm =      8.8D-05

    CPU time for solution =      3.8s
   Wall time for solution =      7.3s



                        Analysis of MCSCF natural orbitals
                        ----------------------------------

 Vector    1  Occ=1.999992D+00  E=-2.060971D+01  Symmetry=a
              MO Center= -9.1D-02, -1.8D-01, -1.1D-13, r^2= 1.5D-02
   Bfn.  Coefficient  Atom+Function         Bfn.  Coefficient  Atom+Function  
  ----- ------------  ---------------      ----- ------------  ---------------
     1      0.974409  1 O  s          

 Vector    2  Occ=1.998568D+00  E=-1.304871D+00  Symmetry=a
              MO Center= -2.7D-01, -1.3D-01,  6.6D-11, r^2= 4.3D-01
   Bfn.  Coefficient  Atom+Function         Bfn.  Coefficient  Atom+Function  
  ----- ------------  ---------------      ----- ------------  ---------------
     2      0.552040  1 O  s                  4      0.403205  1 O  s          
     3      0.153933  1 O  s          

 Vector    3  Occ=1.984365D+00  E=-6.701111D-01  Symmetry=a
              MO Center= -6.2D-02, -1.9D-01, -6.5D-11, r^2= 6.2D-01
   Bfn.  Coefficient  Atom+Function         Bfn.  Coefficient  Atom+Function  
  ----- ------------  ---------------      ----- ------------  ---------------
    10      0.447128  1 O  pz                13      0.380202  1 O  pz         
     7      0.369789  1 O  pz         

 Vector    4  Occ=1.974428D+00  E=-5.463363D-01  Symmetry=a
              MO Center=  3.3D-01, -3.3D-01, -1.6D-12, r^2= 5.8D-01
   Bfn.  Coefficient  Atom+Function         Bfn.  Coefficient  Atom+Function  
  ----- ------------  ---------------      ----- ------------  ---------------
     8      0.334723  1 O  px                46      0.280861  3 H  s          
     5      0.279197  1 O  px                45      0.188290  3 H  s          
    11      0.182045  1 O  px         

 Vector    5  Occ=1.510960D+00  E=-4.068016D-01  Symmetry=a
              MO Center= -6.5D-02,  8.1D-01, -6.1D-13, r^2= 1.8D+00
   Bfn.  Coefficient  Atom+Function         Bfn.  Coefficient  Atom+Function  
  ----- ------------  ---------------      ----- ------------  ---------------
    32      0.313584  2 H  s                  9      0.308399  1 O  py         
    33      0.258638  2 H  s                  6      0.241748  1 O  py         
    12      0.217081  1 O  py                31      0.152229  2 H  s          

 Vector    6  Occ=4.897206D-01  E=-1.617503D-01  Symmetry=a
              MO Center= -7.7D-02,  9.6D-01, -6.0D-13, r^2= 1.8D+00
   Bfn.  Coefficient  Atom+Function         Bfn.  Coefficient  Atom+Function  
  ----- ------------  ---------------      ----- ------------  ---------------
    32      0.410926  2 H  s                  9     -0.365233  1 O  py         
     6     -0.283060  1 O  py                33      0.271769  2 H  s          
    12     -0.199117  1 O  py                31      0.187313  2 H  s          

 Vector    7  Occ=2.662725D-02  E=-2.623953D-02  Symmetry=a
              MO Center=  5.1D-01, -3.9D-01, -6.8D-13, r^2= 6.0D-01
   Bfn.  Coefficient  Atom+Function         Bfn.  Coefficient  Atom+Function  
  ----- ------------  ---------------      ----- ------------  ---------------
    46      0.695927  3 H  s                  5     -0.483375  1 O  px         
     8     -0.422564  1 O  px                45      0.343042  3 H  s          
     2     -0.287520  1 O  s                  4     -0.251784  1 O  s          
     6      0.161421  1 O  py         

 Vector    8  Occ=1.533951D-02  E=-1.313379D-02  Symmetry=a
              MO Center=  4.3D-02, -2.2D-01, -9.2D-11, r^2= 1.2D+00
   Bfn.  Coefficient  Atom+Function         Bfn.  Coefficient  Atom+Function  
  ----- ------------  ---------------      ----- ------------  ---------------
    13      0.815555  1 O  pz                 7     -0.637304  1 O  pz         
    10     -0.282591  1 O  pz                53      0.162766  3 H  pz         

 Vector    9  Occ=0.000000D+00  E= 2.912968D-01  Symmetry=a
              MO Center=  1.1D+00, -6.8D-01,  3.1D-11, r^2= 3.6D+00
   Bfn.  Coefficient  Atom+Function         Bfn.  Coefficient  Atom+Function  
  ----- ------------  ---------------      ----- ------------  ---------------
    47      1.973977  3 H  s                  4     -1.263337  1 O  s          
    11     -0.569244  1 O  px                51     -0.424177  3 H  px         
    46     -0.262962  3 H  s                 52      0.172574  3 H  py         
    12      0.158080  1 O  py         

 Vector   10  Occ=0.000000D+00  E= 3.918146D-01  Symmetry=a
              MO Center= -1.2D-01,  2.2D+00,  8.7D-13, r^2= 3.2D+00
   Bfn.  Coefficient  Atom+Function         Bfn.  Coefficient  Atom+Function  
  ----- ------------  ---------------      ----- ------------  ---------------
    33      1.757410  2 H  s                 32     -1.332611  2 H  s          
    47     -0.431490  3 H  s                 12     -0.308626  1 O  py         
    46      0.290211  3 H  s                  4     -0.231228  1 O  s          

 Vector   11  Occ=0.000000D+00  E= 6.173414D-01  Symmetry=a
              MO Center= -4.9D-01,  5.1D-01, -2.7D-12, r^2= 2.3D+00
   Bfn.  Coefficient  Atom+Function         Bfn.  Coefficient  Atom+Function  
  ----- ------------  ---------------      ----- ------------  ---------------
    46      2.626999  3 H  s                  4     -2.127094  1 O  s          
    11     -2.103461  1 O  px                51     -0.805194  3 H  px         
    12      0.680113  1 O  py                37     -0.413499  2 H  px         
    47      0.339400  3 H  s                 52      0.246876  3 H  py         
    23     -0.184756  1 O  d  2              33     -0.172413  2 H  s          

 Vector   12  Occ=0.000000D+00  E= 7.593913D-01  Symmetry=a
              MO Center= -3.1D-02,  8.7D-01,  1.2D-12, r^2= 2.4D+00
   Bfn.  Coefficient  Atom+Function         Bfn.  Coefficient  Atom+Function  
  ----- ------------  ---------------      ----- ------------  ---------------
    12      0.747980  1 O  py                38     -0.558149  2 H  py         
     9     -0.510293  1 O  py                46      0.327045  3 H  s          
    32     -0.287896  2 H  s                 37      0.190860  2 H  px         
     6     -0.184036  1 O  py                 2     -0.174014  1 O  s          
    52      0.151122  3 H  py         

 Vector   13  Occ=0.000000D+00  E= 7.735446D-01  Symmetry=a
              MO Center=  3.8D-02,  1.5D+00,  1.1D-12, r^2= 1.9D+00
   Bfn.  Coefficient  Atom+Function         Bfn.  Coefficient  Atom+Function  
  ----- ------------  ---------------      ----- ------------  ---------------
    39      0.940583  2 H  pz                53     -0.518420  3 H  pz         
    13      0.268664  1 O  pz         

 Vector   14  Occ=0.000000D+00  E= 8.326135D-01  Symmetry=a
              MO Center=  1.2D-01,  5.7D-01,  4.8D-13, r^2= 3.0D+00
   Bfn.  Coefficient  Atom+Function         Bfn.  Coefficient  Atom+Function  
  ----- ------------  ---------------      ----- ------------  ---------------
     4      1.470523  1 O  s                 46     -1.475424  3 H  s          
    11      1.266546  1 O  px                52     -0.871977  3 H  py         
    37     -0.610329  2 H  px                38     -0.400612  2 H  py         
    47     -0.356830  3 H  s                 12     -0.309690  1 O  py         
    33      0.309408  2 H  s                 51      0.256039  3 H  px         

 Vector   15  Occ=0.000000D+00  E= 8.687469D-01  Symmetry=a
              MO Center=  1.7D-01,  7.1D-01, -1.8D-12, r^2= 2.9D+00
   Bfn.  Coefficient  Atom+Function         Bfn.  Coefficient  Atom+Function  
  ----- ------------  ---------------      ----- ------------  ---------------
    37      0.726551  2 H  px                11     -0.486155  1 O  px         
    52     -0.476275  3 H  py                46      0.353599  3 H  s          
    47     -0.337325  3 H  s                 38     -0.315711  2 H  py         
     9      0.307360  1 O  py                 2     -0.298663  1 O  s          
     4      0.280750  1 O  s                  8      0.267813  1 O  px         

 Vector   16  Occ=0.000000D+00  E= 9.169081D-01  Symmetry=a
              MO Center=  3.5D-01,  1.4D-02, -6.0D-12, r^2= 2.5D+00
   Bfn.  Coefficient  Atom+Function         Bfn.  Coefficient  Atom+Function  
  ----- ------------  ---------------      ----- ------------  ---------------
    53      1.142833  3 H  pz                13     -0.909664  1 O  pz         
    39      0.492632  2 H  pz         

 Vector   17  Occ=0.000000D+00  E= 9.698516D-01  Symmetry=a
              MO Center=  9.5D-03, -5.3D-01,  2.9D-11, r^2= 2.4D+00
   Bfn.  Coefficient  Atom+Function         Bfn.  Coefficient  Atom+Function  
  ----- ------------  ---------------      ----- ------------  ---------------
     4      2.762773  1 O  s                 46     -1.788910  3 H  s          
    12     -1.483016  1 O  py                51      1.112948  3 H  px         
    47     -0.795108  3 H  s                 11      0.754882  1 O  px         
     2     -0.647635  1 O  s                 52      0.514639  3 H  py         
     8      0.488470  1 O  px                38     -0.457255  2 H  py         

 Vector   18  Occ=0.000000D+00  E= 1.301993D+00  Symmetry=a
              MO Center= -8.3D-02,  5.7D-01,  4.9D-11, r^2= 2.2D+00
   Bfn.  Coefficient  Atom+Function         Bfn.  Coefficient  Atom+Function  
  ----- ------------  ---------------      ----- ------------  ---------------
     4      3.466665  1 O  s                 46     -1.966310  3 H  s          
    11      0.979886  1 O  px                51      0.956057  3 H  px         
     2     -0.872279  1 O  s                 52     -0.804111  3 H  py         
    38      0.766990  2 H  py                12      0.609525  1 O  py         
     8      0.595821  1 O  px                 9     -0.514790  1 O  py         


 Wrote Lagrangian and 1- and 2-particle density matrices to ./H2O.mcpdm


     Multipole analysis of the density
     ---------------------------------

     L   x y z        total        nuclear
     -   - - -        -----        -------
     0   0 0 0     -0.000000     10.000000

     1   1 0 0      0.575031     -0.000000
     1   0 1 0     -0.076294      0.000000
     1   0 0 1      0.000000      0.000000

     2   2 0 0     -4.465744      2.679864
     2   1 1 0     -0.633768     -1.700753
     2   1 0 1     -0.000000      0.000000
     2   0 2 0     -3.955124     15.435029
     2   0 1 1     -0.000000      0.000000
     2   0 0 2     -5.938682      0.000000


  Mulliken analysis of the total density
  --------------------------------------

    Atom       Charge   Shell Charges
 -----------   ------   -------------------------------------------------------
    1 O    8     8.27   1.95  1.06  0.25  0.64  1.22  1.95  1.19  0.00  0.01  0.00
    2 H    1     0.97   0.16  0.47  0.33 -0.00  0.00  0.00
    3 H    1     0.76   0.25  0.39  0.03  0.02  0.06  0.01

    Mulliken analysis of the active space density
    ---------------------------------------------

    Atom       Charge   Shell Charges
 -----------   ------   -------------------------------------------------------
    1 O    8     8.27   1.95  1.06  0.25  0.64  1.22  1.95  1.19  0.00  0.01  0.00
    2 H    1     0.97   0.16  0.47  0.33 -0.00  0.00  0.00
    3 H    1     0.76   0.25  0.39  0.03  0.02  0.06  0.01

 Parallel integral file used      15 records with       0 large values


 Task  times  cpu:        3.8s     wall:        7.3s


                                NWChem Input Module
                                -------------------


                                 NWChem SCF Module
                                 -----------------


                                        H2O



  ao basis        = "ao basis"
  functions       =    58
  atoms           =     3
  closed shells   =     5
  open shells     =     0
  charge          =   0.00
  wavefunction    = RHF 
  input vectors   = ./h2o.mos
  output vectors  = ./h2o-trash.mos
  use symmetry    = F
  symmetry adapt  = F


 Summary of "ao basis" -> "ao basis" (spherical)
 ------------------------------------------------------------------------------
       Tag                 Description            Shells   Functions and Types
 ---------------- ------------------------------  ------  ---------------------
 O                          cc-pVTZ                 10       30   4s3p2d1f
 H                          cc-pVTZ                  6       14   3s2p1d



 Forming initial guess at       7.3s


 Loading old vectors from job with title :

H2O


 Starting SCF solution at       7.3s



 ----------------------------------------------
         Quadratically convergent ROHF

 Convergence threshold     :          1.000E-04
 Maximum no. of iterations :           30
 Final Fock-matrix accuracy:          1.000E-07
 ----------------------------------------------


 Integral file          = ./H2O.aoints.0
 Record size in doubles =  65536        No. of integs per rec  =  43688
 Max. records in memory =     49        Max. records in file   = 250691
 No. of bits per label  =      8        No. of bits per value  =     64


 #quartets = 3.193D+04 #integrals = 6.350D+05 #direct =  0.0% #cached =100.0%



       Final RHF  results 
       ------------------ 

         Total SCF energy =    -75.783184663018
      One-electron energy =   -117.607907043183
      Two-electron energy =     35.293389523211
 Nuclear repulsion energy =      6.531332856955

        Time for solution =      0.1s


             Final eigenvalues
             -----------------

              1      
    1  -20.6097
    2   -1.3049
    3   -0.6701
    4   -0.5463
    5   -0.4068
    6   -0.1618
    7   -0.0262
    8   -0.0131
    9    0.2913
   10    0.3918
   11    0.6173
   12    0.7594
   13    0.7735
   14    0.8326
   15    0.8687

                       ROHF Final Molecular Orbital Analysis
                       -------------------------------------

 Vector    2  Occ=2.000000D+00  E=-1.304871D+00
              MO Center= -2.7D-01, -1.3D-01,  6.6D-11, r^2= 4.3D-01
   Bfn.  Coefficient  Atom+Function         Bfn.  Coefficient  Atom+Function  
  ----- ------------  ---------------      ----- ------------  ---------------
     2      0.552040  1 O  s                  4      0.403205  1 O  s          
     3      0.153933  1 O  s          

 Vector    3  Occ=2.000000D+00  E=-6.701111D-01
              MO Center= -6.2D-02, -1.9D-01, -6.5D-11, r^2= 6.2D-01
   Bfn.  Coefficient  Atom+Function         Bfn.  Coefficient  Atom+Function  
  ----- ------------  ---------------      ----- ------------  ---------------
    10      0.447128  1 O  pz                13      0.380202  1 O  pz         
     7      0.369789  1 O  pz         

 Vector    4  Occ=2.000000D+00  E=-5.463363D-01
              MO Center=  3.3D-01, -3.3D-01, -1.6D-12, r^2= 5.8D-01
   Bfn.  Coefficient  Atom+Function         Bfn.  Coefficient  Atom+Function  
  ----- ------------  ---------------      ----- ------------  ---------------
     8      0.334723  1 O  px                46      0.280861  3 H  s          
     5      0.279197  1 O  px                45      0.188290  3 H  s          
    11      0.182045  1 O  px         

 Vector    5  Occ=2.000000D+00  E=-4.068016D-01
              MO Center= -6.5D-02,  8.1D-01, -6.1D-13, r^2= 1.8D+00
   Bfn.  Coefficient  Atom+Function         Bfn.  Coefficient  Atom+Function  
  ----- ------------  ---------------      ----- ------------  ---------------
    32      0.313584  2 H  s                  9      0.308399  1 O  py         
    33      0.258638  2 H  s                  6      0.241748  1 O  py         
    12      0.217081  1 O  py                31      0.152229  2 H  s          

 Vector    6  Occ=0.000000D+00  E=-1.617503D-01
              MO Center= -7.7D-02,  9.6D-01, -6.0D-13, r^2= 1.8D+00
   Bfn.  Coefficient  Atom+Function         Bfn.  Coefficient  Atom+Function  
  ----- ------------  ---------------      ----- ------------  ---------------
    32      0.410926  2 H  s                  9     -0.365233  1 O  py         
     6     -0.283060  1 O  py                33      0.271769  2 H  s          
    12     -0.199117  1 O  py                31      0.187313  2 H  s          

 Vector    7  Occ=0.000000D+00  E=-2.623953D-02
              MO Center=  5.1D-01, -3.9D-01, -6.8D-13, r^2= 6.0D-01
   Bfn.  Coefficient  Atom+Function         Bfn.  Coefficient  Atom+Function  
  ----- ------------  ---------------      ----- ------------  ---------------
    46      0.695927  3 H  s                  5     -0.483375  1 O  px         
     8     -0.422564  1 O  px                45      0.343042  3 H  s          
     2     -0.287520  1 O  s                  4     -0.251784  1 O  s          
     6      0.161421  1 O  py         

 Vector    8  Occ=0.000000D+00  E=-1.313379D-02
              MO Center=  4.3D-02, -2.2D-01, -9.2D-11, r^2= 1.2D+00
   Bfn.  Coefficient  Atom+Function         Bfn.  Coefficient  Atom+Function  
  ----- ------------  ---------------      ----- ------------  ---------------
    13      0.815555  1 O  pz                 7     -0.637304  1 O  pz         
    10     -0.282591  1 O  pz                53      0.162766  3 H  pz         

 Vector    9  Occ=0.000000D+00  E= 2.912968D-01
              MO Center=  1.1D+00, -6.8D-01,  3.1D-11, r^2= 3.6D+00
   Bfn.  Coefficient  Atom+Function         Bfn.  Coefficient  Atom+Function  
  ----- ------------  ---------------      ----- ------------  ---------------
    47      1.973977  3 H  s                  4     -1.263337  1 O  s          
    11     -0.569244  1 O  px                51     -0.424177  3 H  px         
    46     -0.262962  3 H  s                 52      0.172574  3 H  py         
    12      0.158080  1 O  py         

 Vector   10  Occ=0.000000D+00  E= 3.918146D-01
              MO Center= -1.2D-01,  2.2D+00,  8.7D-13, r^2= 3.2D+00
   Bfn.  Coefficient  Atom+Function         Bfn.  Coefficient  Atom+Function  
  ----- ------------  ---------------      ----- ------------  ---------------
    33      1.757410  2 H  s                 32     -1.332611  2 H  s          
    47     -0.431490  3 H  s                 12     -0.308626  1 O  py         
    46      0.290211  3 H  s                  4     -0.231228  1 O  s          

 Vector   11  Occ=0.000000D+00  E= 6.173414D-01
              MO Center= -4.9D-01,  5.1D-01, -2.7D-12, r^2= 2.3D+00
   Bfn.  Coefficient  Atom+Function         Bfn.  Coefficient  Atom+Function  
  ----- ------------  ---------------      ----- ------------  ---------------
    46      2.626999  3 H  s                  4     -2.127094  1 O  s          
    11     -2.103461  1 O  px                51     -0.805194  3 H  px         
    12      0.680113  1 O  py                37     -0.413499  2 H  px         
    47      0.339400  3 H  s                 52      0.246876  3 H  py         
    23     -0.184756  1 O  d  2              33     -0.172413  2 H  s          

 Vector   12  Occ=0.000000D+00  E= 7.593913D-01
              MO Center= -3.1D-02,  8.7D-01,  1.2D-12, r^2= 2.4D+00
   Bfn.  Coefficient  Atom+Function         Bfn.  Coefficient  Atom+Function  
  ----- ------------  ---------------      ----- ------------  ---------------
    12      0.747980  1 O  py                38     -0.558149  2 H  py         
     9     -0.510293  1 O  py                46      0.327045  3 H  s          
    32     -0.287896  2 H  s                 37      0.190860  2 H  px         
     6     -0.184036  1 O  py                 2     -0.174014  1 O  s          
    52      0.151122  3 H  py         

 Vector   13  Occ=0.000000D+00  E= 7.735446D-01
              MO Center=  3.8D-02,  1.5D+00,  1.1D-12, r^2= 1.9D+00
   Bfn.  Coefficient  Atom+Function         Bfn.  Coefficient  Atom+Function  
  ----- ------------  ---------------      ----- ------------  ---------------
    39      0.940583  2 H  pz                53     -0.518420  3 H  pz         
    13      0.268664  1 O  pz         

 Vector   14  Occ=0.000000D+00  E= 8.326135D-01
              MO Center=  1.2D-01,  5.7D-01,  4.8D-13, r^2= 3.0D+00
   Bfn.  Coefficient  Atom+Function         Bfn.  Coefficient  Atom+Function  
  ----- ------------  ---------------      ----- ------------  ---------------
     4      1.470523  1 O  s                 46     -1.475424  3 H  s          
    11      1.266546  1 O  px                52     -0.871977  3 H  py         
    37     -0.610329  2 H  px                38     -0.400612  2 H  py         
    47     -0.356830  3 H  s                 12     -0.309690  1 O  py         
    33      0.309408  2 H  s                 51      0.256039  3 H  px         

 Vector   15  Occ=0.000000D+00  E= 8.687469D-01
              MO Center=  1.7D-01,  7.1D-01, -1.8D-12, r^2= 2.9D+00
   Bfn.  Coefficient  Atom+Function         Bfn.  Coefficient  Atom+Function  
  ----- ------------  ---------------      ----- ------------  ---------------
    37      0.726551  2 H  px                11     -0.486155  1 O  px         
    52     -0.476275  3 H  py                46      0.353599  3 H  s          
    47     -0.337325  3 H  s                 38     -0.315711  2 H  py         
     9      0.307360  1 O  py                 2     -0.298663  1 O  s          
     4      0.280750  1 O  s                  8      0.267813  1 O  px         


 center of mass
 --------------
 x =  -0.07599894 y =  -0.14842872 z =   0.00000000

 moments of inertia (a.u.)
 ------------------
          16.059944986409           1.455931094249           0.000000000000
           1.455931094249           2.833002082974           0.000000000000
           0.000000000000           0.000000000000          18.892947069383

  Mulliken analysis of the total density
  --------------------------------------

    Atom       Charge   Shell Charges
 -----------   ------   -------------------------------------------------------
    1 O    8     8.30   1.95  1.06  0.25  0.65  1.19  1.95  1.24  0.00  0.01  0.00
    2 H    1     0.94   0.15  0.44  0.35 -0.00  0.00  0.00
    3 H    1     0.76   0.25  0.39  0.03  0.02  0.06  0.01

       Multipole analysis of the density wrt the origin
       ------------------------------------------------

     L   x y z        total         open         nuclear
     -   - - -        -----         ----         -------
     0   0 0 0     -0.000000      0.000000     10.000000

     1   1 0 0      0.576820      0.000000     -0.000000
     1   0 1 0      0.055900      0.000000      0.000000
     1   0 0 1      0.000000      0.000000      0.000000

     2   2 0 0     -4.506207      0.000000      2.679864
     2   1 1 0     -0.726609      0.000000     -1.700753
     2   1 0 1     -0.000000      0.000000      0.000000
     2   0 2 0     -3.253286      0.000000     15.435029
     2   0 1 1     -0.000000      0.000000      0.000000
     2   0 0 2     -5.974768      0.000000      0.000000


 Parallel integral file used      15 records with       0 large values

 ------------------------------------
     Number of active orbitals      8
     Number of active alpha electrons      5
     Number of active beta electrons       5
 ------------------------------------
                   NWChem Extensible Many-Electron Theory Module
                   ---------------------------------------------

              ======================================================
                   This portion of the program was automatically
                  generated by a Tensor Contraction Engine (TCE).
                  The development of this portion of the program
                 and TCE was supported by US Department of Energy,
                Office of Science, Office of Basic Energy Science.
                      TCE is a product of Battelle and PNNL.
              Please cite: S.Hirata, J.Phys.Chem.A 107, 9887 (2003).
              ======================================================

                                        H2O


            General Information
            -------------------
      Number of processors :     1
         Wavefunction type : Restricted Hartree-Fock
          No. of electrons :    10
           Alpha electrons :     5
            Beta electrons :     5
           No. of orbitals :   116
            Alpha orbitals :    58
             Beta orbitals :    58
        Alpha frozen cores :     0
         Beta frozen cores :     0
     Alpha frozen virtuals :    50
      Beta frozen virtuals :    50
         Spin multiplicity : singlet 
    Number of AO functions :    58
       Number of AO shells :    22
        Use of symmetry is : off
      Symmetry adaption is : off
         Schwarz screening : 0.10D-09

          Correlation Information
          -----------------------
          Calculation type : Coupled-cluster singles & doubles                           
   Perturbative correction : none                                                        
            Max iterations :      300
        Residual threshold : 0.10D-06
     T(0) DIIS level shift : 0.00D+00
     L(0) DIIS level shift : 0.00D+00
     T(1) DIIS level shift : 0.00D+00
     L(1) DIIS level shift : 0.00D+00
     T(R) DIIS level shift : 0.00D+00
     T(I) DIIS level shift : 0.00D+00
   CC-T/L Amplitude update :  5-th order DIIS
                I/O scheme : Global Array Library
        L-threshold :  0.10D-06
        EOM-threshold :  0.10D-06
 no EOMCCSD initial starts read in
 TCE RESTART OPTIONS
 READ_INT:   F
 WRITE_INT:  F
 READ_TA:    F
 WRITE_TA:   F
 READ_XA:    F
 WRITE_XA:   F
 READ_IN3:   F
 WRITE_IN3:  F
 SLICE:      F
 D4D5:       F
 quantumc:   T
 qrotation:  F
 pwtce:      F
 qducc:      F
 nacto:                         0
 nrotv:                         0
 nrot:                          0

            Memory Information
            ------------------
          Available GA space size is    1610609372 doubles
          Available MA space size is    1610609772 doubles

 Maximum block size supplied by input
 Maximum block size         1 doubles

 tile_dim =      1

 Block   Spin    Irrep     Size     Offset   Alpha
 -------------------------------------------------
   1    alpha     a      1 doubles       0       1
   2    alpha     a      1 doubles       1       2
   3    alpha     a      1 doubles       2       3
   4    alpha     a      1 doubles       3       4
   5    alpha     a      1 doubles       4       5
   6    beta      a      1 doubles       5       1
   7    beta      a      1 doubles       6       2
   8    beta      a      1 doubles       7       3
   9    beta      a      1 doubles       8       4
  10    beta      a      1 doubles       9       5
  11    alpha     a      1 doubles      10      11
  12    alpha     a      1 doubles      11      12
  13    alpha     a      1 doubles      12      13
  14    beta      a      1 doubles      13      11
  15    beta      a      1 doubles      14      12
  16    beta      a      1 doubles      15      13

 Global array virtual files algorithm will be used

 Parallel file system coherency ......... OK

 Integral file          = ./H2O.aoints.0
 Record size in doubles =  65536        No. of integs per rec  =  43688
 Max. records in memory =     49        Max. records in file   = 250691
 No. of bits per label  =      8        No. of bits per value  =     64


 #quartets = 3.209D+04 #integrals = 6.561D+05 #direct =  0.0% #cached =100.0%


 Fock matrix recomputed
 1-e file size   =               64
 1-e file name   = ./H2O.f1
 Cpu & wall time / sec            0.1            0.1
 4-electron integrals stored in orbital form

 v2    file size   =              666
 4-index algorithm nr.  13 is used
 imaxsize =       30
 imaxsize ichop =        0
 begin_one_electron_integrals
    1    1       -32.7013655143
    2    1        -0.8303009723
    4    1         0.1332685023
    5    1        -0.0307707563
    6    1        -0.0547511260
    7    1        -0.2094560602
    1    2        -0.8303009723
    2    2        -7.6558952504
    4    2        -0.2629433954
    5    2         0.1166521683
    6    2         0.2001587919
    7    2         0.1231250992
    3    3        -6.8717638366
    8    3         2.1213347018
    1    4         0.1332685023
    2    4        -0.2629433954
    4    4        -6.6451333374
    5    4        -0.0547711142
    6    4        -0.0322225433
    7    4         1.9277465979
    1    5        -0.0307707563
    2    5         0.1166521683
    4    5        -0.0547711142
    5    5        -4.9297955828
    6    5         2.2305953570
    7    5         0.0139367786
    1    6        -0.0547511260
    2    6         0.2001587919
    4    6        -0.0322225433
    5    6         2.2305953570
    6    6        -4.9040453027
    7    6         0.0178158751
    1    7        -0.2094560602
    2    7         0.1231250992
    4    7         1.9277465979
    5    7         0.0139367786
    6    7         0.0178158751
    7    7        -5.9123542129
    3    8         2.1213347018
    8    8        -5.2350175136
 end_one_electron_integrals
 begin_two_electron_integrals
    1    1    1    1        4.8214720313
    2    1    1    1       -0.2515378896
    2    1    2    1        0.0332093797
    3    1    3    1        0.0286625565
    4    1    1    1       -0.0891503272
    4    1    2    1        0.0029288338
    4    1    4    1        0.0214043697
    4    1    2    2       -0.0142389722
    4    1    3    3       -0.0024060534
    5    1    1    1        0.0181592603
    5    1    2    1       -0.0021851308
    5    1    4    1        0.0002576143
    5    1    5    1        0.0143032170
    5    1    2    2        0.0003868448
    5    1    4    2        0.0005715429
    5    1    3    3        0.0014680885
    5    1    4    4        0.0014911342
    6    1    1    1        0.0363418549
    6    1    2    1       -0.0031381422
    6    1    4    1       -0.0005321753
    6    1    5    1       -0.0157704587
    6    1    6    1        0.0184378692
    6    1    2    2        0.0026989160
    6    1    4    2        0.0005420406
    6    1    5    2       -0.0152769144
    6    1    3    3        0.0020801596
    6    1    4    4        0.0020940987
    6    1    5    4       -0.0028951197
    6    1    5    5        0.0005883196
    7    1    1    1        0.1703745162
    7    1    2    1       -0.0085472502
    7    1    4    1       -0.0331537650
    7    1    5    1        0.0001613627
    7    1    6    1        0.0008846512
    7    1    7    1        0.0520150138
    7    1    2    2        0.0225110227
    7    1    4    2       -0.0261368013
    7    1    5    2       -0.0011268444
    7    1    6    2       -0.0019031678
    7    1    3    3        0.0036705332
    7    1    4    4       -0.0147698466
    7    1    5    4        0.0006426934
    7    1    6    4        0.0012754682
    7    1    5    5        0.0025514981
    7    1    6    5       -0.0014743664
    7    1    6    6        0.0028365195
    8    1    3    1       -0.0398197642
    8    1    8    1        0.0557072136
    8    1    3    2       -0.0385709189
    8    1    4    3       -0.0075140536
    8    1    5    3        0.0009265987
    8    1    6    3        0.0024439748
    8    1    7    3        0.0103998316
    2    2    1    1        1.0843234004
    2    2    2    1        0.0069003741
    2    2    2    2        0.8270867579
    3    2    3    1        0.0261202138
    3    2    3    2        0.1440785731
    4    2    1    1       -0.0050861369
    4    2    2    1       -0.0042468740
    4    2    4    1        0.0167470037
    4    2    2    2       -0.0567489168
    4    2    4    2        0.0909462735
    4    2    3    3        0.0107850691
    5    2    1    1       -0.0342822791
    5    2    2    1       -0.0005756214
    5    2    4    1        0.0009522112
    5    2    5    1        0.0129726117
    5    2    2    2       -0.0242967751
    5    2    4    2        0.0022326805
    5    2    5    2        0.0792749874
    5    2    3    3       -0.0169374135
    5    2    4    4       -0.0143325897
    6    2    1    1       -0.0395340132
    6    2    2    1        0.0000137754
    6    2    4    1        0.0009970257
    6    2    5    1       -0.0139241015
    6    2    6    1        0.0158863659
    6    2    2    2       -0.0203836161
    6    2    4    2        0.0042321519
    6    2    5    2       -0.0741082501
    6    2    6    2        0.0753363586
    6    2    3    3       -0.0208391117
    6    2    4    4       -0.0138264968
    6    2    5    4       -0.0114074241
    6    2    5    5       -0.0163720624
    7    2    1    1       -0.0267318776
    7    2    2    1        0.0049682026
    7    2    4    1       -0.0162090642
    7    2    5    1       -0.0002874961
    7    2    6    1       -0.0010460754
    7    2    7    1        0.0239317337
    7    2    2    2        0.0285942169
    7    2    4    2       -0.0606840206
    7    2    5    2        0.0003135005
    7    2    6    2       -0.0046336131
    7    2    7    2        0.0528837405
    7    2    3    3       -0.0191779663
    7    2    4    4       -0.0358515090
    7    2    5    4        0.0013358272
    7    2    6    4        0.0029751101
    7    2    5    5       -0.0092918881
    7    2    6    5        0.0126205057
    7    2    6    6       -0.0109037538
    8    2    3    1       -0.0207330427
    8    2    8    1        0.0271719006
    8    2    3    2       -0.0536699859
    8    2    8    2        0.0445655118
    8    2    4    3       -0.0032880715
    8    2    5    3        0.0018055742
    8    2    6    3        0.0044377080
    8    2    7    3        0.0115380137
    3    3    1    1        1.0493983080
    3    3    2    1        0.0048489140
    3    3    2    2        0.7414175464
    3    3    3    3        0.7607445028
    4    3    3    1        0.0052896241
    4    3    3    2        0.0230936299
    4    3    4    3        0.0365241431
    5    3    3    1       -0.0007089398
    5    3    3    2       -0.0032316408
    5    3    4    3        0.0001700295
    5    3    5    3        0.0198021284
    6    3    3    1       -0.0017386622
    6    3    3    2       -0.0073826593
    6    3    4    3       -0.0008718866
    6    3    5    3       -0.0189463512
    6    3    6    3        0.0198416401
    7    3    3    1       -0.0079150269
    7    3    3    2       -0.0219754515
    7    3    4    3       -0.0205873641
    7    3    5    3        0.0005558475
    7    3    6    3        0.0010577972
    7    3    7    3        0.0251661707
    8    3    1    1       -0.5366163446
    8    3    2    1       -0.0020245808
    8    3    4    1        0.0042096259
    8    3    5    1       -0.0012463542
    8    3    6    1       -0.0015093814
    8    3    7    1       -0.0073290586
    8    3    2    2       -0.2189678668
    8    3    4    2        0.0096585593
    8    3    5    2        0.0079194958
    8    3    6    2        0.0120549659
    8    3    7    2        0.0063879535
    8    3    3    3       -0.2126982418
    8    3    8    3        0.1657136091
    8    3    4    4       -0.1408925492
    8    3    5    4       -0.0031590664
    8    3    6    4       -0.0009914005
    8    3    7    4        0.1250440262
    8    3    5    5       -0.1026129237
    8    3    6    5        0.0977724663
    8    3    7    5        0.0013836947
    8    3    6    6       -0.1141865122
    8    3    7    6        0.0019997024
    8    3    7    7       -0.1656259003
    4    4    1    1        0.9082801416
    4    4    2    1        0.0018682128
    4    4    4    1        0.0088322444
    4    4    2    2        0.6363702961
    4    4    4    2        0.0804887986
    4    4    3    3        0.6378232400
    4    4    4    4        0.7737371246
    5    4    1    1        0.0124180590
    5    4    2    1        0.0001624829
    5    4    4    1       -0.0003956777
    5    4    5    1        0.0025929086
    5    4    2    2        0.0071949825
    5    4    4    2       -0.0019098391
    5    4    5    2        0.0099457668
    5    4    3    3        0.0061849031
    5    4    4    4        0.0051157210
    5    4    5    4        0.0187266796
    6    4    1    1        0.0061380211
    6    4    2    1        0.0004190106
    6    4    4    1       -0.0009473735
    6    4    5    1       -0.0028571515
    6    4    6    1        0.0032598774
    6    4    2    2        0.0074042223
    6    4    4    2       -0.0022106844
    6    4    5    2       -0.0131864579
    6    4    6    2        0.0122174589
    6    4    3    3        0.0038043929
    6    4    4    4        0.0053546868
    6    4    5    4       -0.0181536146
    6    4    6    4        0.0192987060
    6    4    5    5       -0.0038252251
    7    4    1    1       -0.4737799612
    7    4    2    1       -0.0000052113
    7    4    4    1       -0.0038541826
    7    4    5    1       -0.0012344584
    7    4    6    1       -0.0014838225
    7    4    7    1        0.0026378138
    7    4    2    2       -0.2126321807
    7    4    4    2        0.0144670457
    7    4    5    2        0.0062554218
    7    4    6    2        0.0110548240
    7    4    7    2        0.0164755267
    7    4    3    3       -0.1837673736
    7    4    4    4       -0.0970382784
    7    4    5    4       -0.0030538656
    7    4    6    4        0.0020722498
    7    4    7    4        0.2129674934
    7    4    5    5       -0.1057066261
    7    4    6    5        0.0897464324
    7    4    6    6       -0.1153660704
    8    4    3    1       -0.0023191878
    8    4    8    1        0.0022458017
    8    4    3    2        0.0062631547
    8    4    8    2        0.0031098329
    8    4    4    3       -0.0009048464
    8    4    5    3       -0.0002360260
    8    4    6    3        0.0001837647
    8    4    7    3        0.0154104669
    8    4    8    4        0.0190741439
    5    5    1    1        0.6642588215
    5    5    2    1        0.0025191614
    5    5    4    1       -0.0015354430
    5    5    5    1        0.0004226805
    5    5    2    2        0.5114951002
    5    5    4    2       -0.0001780428
    5    5    5    2        0.0095578047
    5    5    3    3        0.4760879734
    5    5    4    4        0.4421282950
    5    5    5    4        0.0025357768
    5    5    5    5        0.4778812314
    6    5    1    1       -0.4301828348
    6    5    2    1       -0.0026295361
    6    5    4    1        0.0011109921
    6    5    5    1       -0.0011210620
    6    5    6    1       -0.0014723398
    6    5    2    2       -0.2583323489
    6    5    4    2       -0.0097341113
    6    5    5    2        0.0242337545
    6    5    6    2        0.0045256964
    6    5    3    3       -0.2355403193
    6    5    4    4       -0.2155355078
    6    5    5    4       -0.0052532969
    6    5    6    4       -0.0066236979
    6    5    5    5       -0.0552275444
    6    5    6    5        0.2348901857
    7    5    1    1       -0.0039358234
    7    5    2    1       -0.0000477722
    7    5    4    1        0.0002959886
    7    5    5    1       -0.0042777390
    7    5    6    1        0.0048750620
    7    5    7    1       -0.0005353073
    7    5    2    2       -0.0015292578
    7    5    4    2        0.0019800303
    7    5    5    2       -0.0141318996
    7    5    6    2        0.0145999542
    7    5    7    2       -0.0017431124
    7    5    3    3       -0.0007926490
    7    5    4    4       -0.0001933164
    7    5    5    4       -0.0110564228
    7    5    6    4        0.0121643943
    7    5    7    4        0.0020514639
    7    5    5    5       -0.0027773390
    7    5    6    5       -0.0016963799
    7    5    7    5        0.0137898820
    7    5    6    6       -0.0040610437
    8    5    3    1        0.0005686162
    8    5    8    1       -0.0008523357
    8    5    3    2        0.0037537027
    8    5    8    2       -0.0008424431
    8    5    4    3        0.0002075491
    8    5    5    3       -0.0050489822
    8    5    6    3        0.0066188027
    8    5    7    3       -0.0000872044
    8    5    8    4        0.0006199434
    8    5    8    5        0.0096144651
    6    6    1    1        0.7005195763
    6    6    2    1        0.0026707089
    6    6    4    1       -0.0016798874
    6    6    5    1        0.0024893064
    6    6    6    1       -0.0014616162
    6    6    2    2        0.5130879089
    6    6    4    2        0.0013281070
    6    6    5    2        0.0143379712
    6    6    6    2       -0.0225985371
    6    6    3    3        0.4783697585
    6    6    4    4        0.4427930427
    6    6    5    4        0.0018892560
    6    6    6    4       -0.0040251307
    6    6    5    5        0.4901722882
    6    6    6    5       -0.0416566717
    6    6    6    6        0.5133613735
    7    6    1    1       -0.0056653941
    7    6    2    1       -0.0005993079
    7    6    4    1        0.0013208580
    7    6    5    1        0.0047777598
    7    6    6    1       -0.0053268424
    7    6    7    1       -0.0019790555
    7    6    2    2       -0.0081147931
    7    6    4    2        0.0063620596
    7    6    5    2        0.0154662098
    7    6    6    2       -0.0154262909
    7    6    7    2       -0.0037231553
    7    6    3    3       -0.0016201518
    7    6    4    4        0.0049291135
    7    6    5    4        0.0126715881
    7    6    6    4       -0.0138324789
    7    6    7    4        0.0047739195
    7    6    5    5       -0.0020240503
    7    6    6    5       -0.0003385163
    7    6    7    5       -0.0144426515
    7    6    6    6       -0.0012939838
    7    6    7    6        0.0165055131
    8    6    3    1        0.0017539409
    8    6    8    1       -0.0025817740
    8    6    3    2        0.0079230745
    8    6    8    2       -0.0030597009
    8    6    4    3        0.0012984730
    8    6    5    3        0.0078150187
    8    6    6    3       -0.0090879531
    8    6    7    3       -0.0008323650
    8    6    8    4        0.0005980463
    8    6    8    5       -0.0080004654
    8    6    8    6        0.0096846114
    7    7    1    1        1.0488071337
    7    7    2    1       -0.0012324026
    7    7    4    1        0.0086660456
    7    7    5    1        0.0020975401
    7    7    6    1        0.0028298414
    7    7    7    1       -0.0134188395
    7    7    2    2        0.6299574566
    7    7    4    2        0.0708608331
    7    7    5    2       -0.0146852812
    7    7    6    2       -0.0151691860
    7    7    7    2       -0.0349130048
    7    7    3    3        0.6347769943
    7    7    4    4        0.7559759063
    7    7    5    4        0.0054950021
    7    7    6    4        0.0063129332
    7    7    7    4       -0.0933396401
    7    7    5    5        0.4362516160
    7    7    6    5       -0.2195871465
    7    7    7    5       -0.0001510925
    7    7    6    6        0.4406006915
    7    7    7    6        0.0055136246
    7    7    7    7        0.7957425171
    8    7    3    1        0.0073731245
    8    7    8    1       -0.0102000804
    8    7    3    2        0.0244813597
    8    7    8    2       -0.0064468658
    8    7    4    3        0.0275704692
    8    7    5    3       -0.0000046335
    8    7    6    3       -0.0008914110
    8    7    7    3       -0.0167339365
    8    7    8    4       -0.0015089635
    8    7    8    5        0.0005581383
    8    7    8    6        0.0016115514
    8    7    8    7        0.0298838867
    8    8    1    1        1.0382813824
    8    8    2    1        0.0004972151
    8    8    4    1       -0.0047379816
    8    8    5    1        0.0018842676
    8    8    6    1        0.0022247437
    8    8    7    1        0.0073982214
    8    8    2    2        0.6344814929
    8    8    4    2        0.0111353712
    8    8    5    2       -0.0131809500
    8    8    6    2       -0.0171702264
    8    8    7    2       -0.0132444177
    8    8    3    3        0.6546449497
    8    8    8    3       -0.1821282272
    8    8    4    4        0.5728130794
    8    8    5    4        0.0054261659
    8    8    6    4        0.0036210803
    8    8    7    4       -0.1445010385
    8    8    5    5        0.4267358916
    8    8    6    5       -0.1963267093
    8    8    7    5       -0.0008693285
    8    8    6    6        0.4291555676
    8    8    7    6       -0.0005518796
    8    8    7    7        0.5879194411
    8    8    8    8        0.6073464403
 end_two_electron_integrals
 enrep_tce =    6.5313328569548945     
  EHF(A)             =       -75.78318466
  EHF(total)         =       -75.78318466
  Shift (HFtot-HFA)  =        -0.00000000
 Cpu & wall time / sec            1.0            1.0
 T1-number-of-tasks                   15

 t1 file size   =               15
 t1 file name   = ./H2O.t1
 t1 file handle =       -998
 T2-number-of-boxes                  315

 t2 file size   =              315
 t2 file name   = ./H2O.t2
 t2 file handle =       -996
CCSD iterations
 ---------------------------------------------------------
 Iter          Residuum       Correlation     Cpu    Wall 
 ---------------------------------------------------------
NEW TASK SCHEDULING
CCSD_T1_NTS --- OK
CCSD_T2_NTS --- OK
    1   0.6955296390903  -0.3121070483560     2.0     2.8
    2   1.1457034963940   0.0475621542006     2.0     2.7
    3   1.8724316469659  -0.5917311372246     2.1     2.7
    4   3.1434118476242   0.4720920346046     1.9     2.7
    5   4.1242783684835  -1.0051237979382     1.9     2.7
 MICROCYCLE DIIS UPDATE:                    5                    5
    6   0.0216759832346  -0.1926559183963     1.9     2.6
    7   0.0277117198711  -0.1952040489674     2.0     2.7
    8   0.0541218549722  -0.1985046600660     1.9     2.7
    9   0.1178232607181  -0.1916747572848     1.9     2.8
   10   0.2661732533893  -0.1980838515327     1.9     2.7
 MICROCYCLE DIIS UPDATE:                   10                    5
   11   0.0022529784579  -0.1973066675280     1.9     2.7
   12   0.0017476228749  -0.1972583617473     1.9     2.7
   13   0.0019946856230  -0.1970294554889     2.0     2.7
   14   0.0031629322414  -0.1974063396984     1.7     2.7
   15   0.0060497285356  -0.1967759454063     1.9     2.7
 MICROCYCLE DIIS UPDATE:                   15                    5
   16   0.0002913418493  -0.1971858460844     1.9     2.7
   17   0.0003691067539  -0.1971577168886     1.9     2.7
   18   0.0007734114043  -0.1972418113393     1.8     2.7
   19   0.0017304379517  -0.1970931824505     1.8     2.7
   20   0.0039398686905  -0.1973614371082     2.0     2.7
 MICROCYCLE DIIS UPDATE:                   20                    5
   21   0.0000446314307  -0.1971907844760     2.0     2.7
   22   0.0000345431351  -0.1971919935619     1.9     2.7
   23   0.0000408569260  -0.1971872142512     1.7     2.6
   24   0.0000731984392  -0.1971949085342     1.8     2.6
   25   0.0001503356303  -0.1971825508594     1.8     2.7
 MICROCYCLE DIIS UPDATE:                   25                    5
   26   0.0000066722960  -0.1971902611643     1.9     2.7
   27   0.0000070869909  -0.1971900289793     1.8     2.8
   28   0.0000143866728  -0.1971913485590     1.9     2.7
   29   0.0000321513487  -0.1971890638178     2.0     2.7
   30   0.0000732258292  -0.1971932380437     1.9     2.7
 MICROCYCLE DIIS UPDATE:                   30                    5
   31   0.0000011769712  -0.1971905684495     1.8     2.7
   32   0.0000009545628  -0.1971906141917     1.9     2.7
   33   0.0000012133377  -0.1971905106990     2.0     2.8
   34   0.0000023117677  -0.1971906805236     1.8     2.7
   35   0.0000049067000  -0.1971904074793     2.0     2.7
 MICROCYCLE DIIS UPDATE:                   35                    5
   36   0.0000001676801  -0.1971905781542     1.8     2.7
   37   0.0000001560552  -0.1971905743346     2.0     2.8
   38   0.0000002958358  -0.1971905988116     1.9     2.8
   39   0.0000006485450  -0.1971905574058     2.0     2.7
   40   0.0000014605579  -0.1971906334441     2.0     2.7
 MICROCYCLE DIIS UPDATE:                   40                    5
   41   0.0000000236982  -0.1971905838150     1.9     2.7
 -----------------------------------------------------------------
 Iterations converged
 CCSD correlation energy / hartree =        -0.197190583815042
 CCSD total energy / hartree       =       -75.980375246832651

 Singles contributions

 Doubles contributions
     6a   (alpha)     6a   (beta ) ---     5a   (alpha)     5a   (beta )       -0.5633001282
     6a   (alpha)     7a   (beta ) ---     4a   (alpha)     5a   (beta )       -0.0205079797
     6a   (alpha)     7a   (beta ) ---     5a   (alpha)     4a   (beta )       -0.0259752465
     6a   (alpha)     8a   (beta ) ---     5a   (alpha)     3a   (beta )       -0.0240503713
     7a   (alpha)     8a   (alpha) ---     3a   (alpha)     4a   (alpha)        0.0325254505
     7a   (alpha)     6a   (beta ) ---     4a   (alpha)     5a   (beta )       -0.0259752465
     7a   (alpha)     6a   (beta ) ---     5a   (alpha)     4a   (beta )       -0.0205079797
     7a   (alpha)     7a   (beta ) ---     4a   (alpha)     4a   (beta )       -0.0924770279
     7a   (alpha)     8a   (beta ) ---     4a   (alpha)     3a   (beta )       -0.0420712486
     8a   (alpha)     6a   (beta ) ---     3a   (alpha)     5a   (beta )       -0.0240503713
     8a   (alpha)     7a   (beta ) ---     3a   (alpha)     4a   (beta )       -0.0420712486
     8a   (alpha)     8a   (beta ) ---     3a   (alpha)     3a   (beta )       -0.0587922076
 Ground state specification:
 exp(T)|Ref>~(1+T)|Ref>
 ------- a(p)+/a(q) strings ----------

 singles norm

 doubles norm

 Reference string
  0.87127749120733999      :(1a)+ (2a)+ (3a)+ (4a)+ (5a)+ (1b)+ (2b)+ (3b)+ (4b)+ (5b)+ |0>

 Singles strings

 Doubles strings
 -0.49079072252381006      :(6a)+ (6b)+ (5b)  (5a)  (1a)+ (2a)+ (3a)+ (4a)+ (5a)+ (1b)+ (2b)+ (3b)+ (4b)+ (5b)+ |0>
 -------------------------------------

 Parallel integral file used      16 records with       0 large values


 Task  times  cpu:       79.7s     wall:      113.2s


                                NWChem Input Module
                                -------------------


 Summary of allocated global arrays
-----------------------------------
  No active global arrays


MA_summarize_allocated_blocks: starting scan ...
MA_summarize_allocated_blocks: scan completed: 0 heap blocks, 0 stack blocks
MA usage statistics:

	allocation statistics:
					      heap	     stack
					      ----	     -----
	current number of blocks	         0	         0
	maximum number of blocks	        18	        42
	current total bytes		         0	         0
	maximum total bytes		  25775960	  38234456
	maximum total K-bytes		     25776	     38235
	maximum total M-bytes		        26	        39


                                     CITATION
                                     --------
                Please cite the following reference when publishing
                           results obtained with NWChem:

          E. Apra, E. J. Bylaska, W. A. de Jong, N. Govind, K. Kowalski,
       T. P. Straatsma, M. Valiev, H. J. J. van Dam, Y. Alexeev, J. Anchell,
       V. Anisimov, F. W. Aquino, R. Atta-Fynn, J. Autschbach, N. P. Bauman,
     J. C. Becca, D. E. Bernholdt, K. Bhaskaran-Nair, S. Bogatko, P. Borowski,
         J. Boschen, J. Brabec, A. Bruner, E. Cauet, Y. Chen, G. N. Chuev,
      C. J. Cramer, J. Daily, M. J. O. Deegan, T. H. Dunning Jr., M. Dupuis,
   K. G. Dyall, G. I. Fann, S. A. Fischer, A. Fonari, H. Fruchtl, L. Gagliardi,
      J. Garza, N. Gawande, S. Ghosh, K. Glaesemann, A. W. Gotz, J. Hammond,
       V. Helms, E. D. Hermes, K. Hirao, S. Hirata, M. Jacquelin, L. Jensen,
   B. G. Johnson, H. Jonsson, R. A. Kendall, M. Klemm, R. Kobayashi, V. Konkov,
      S. Krishnamoorthy, M. Krishnan, Z. Lin, R. D. Lins, R. J. Littlefield,
      A. J. Logsdail, K. Lopata, W. Ma, A. V. Marenich, J. Martin del Campo,
   D. Mejia-Rodriguez, J. E. Moore, J. M. Mullin, T. Nakajima, D. R. Nascimento,
    J. A. Nichols, P. J. Nichols, J. Nieplocha, A. Otero-de-la-Roza, B. Palmer,
    A. Panyala, T. Pirojsirikul, B. Peng, R. Peverati, J. Pittner, L. Pollack,
   R. M. Richard, P. Sadayappan, G. C. Schatz, W. A. Shelton, D. W. Silverstein,
   D. M. A. Smith, T. A. Soares, D. Song, M. Swart, H. L. Taylor, G. S. Thomas,
            V. Tipparaju, D. G. Truhlar, K. Tsemekhman, T. Van Voorhis,
      A. Vazquez-Mayagoitia, P. Verma, O. Villa, A. Vishnu, K. D. Vogiatzis,
        D. Wang, J. H. Weare, M. J. Williamson, T. L. Windus, K. Wolinski,
        A. T. Wong, Q. Wu, C. Yang, Q. Yu, M. Zacharias, Z. Zhang, Y. Zhao,
                                and R. J. Harrison
                        "NWChem: Past, present, and future
                         J. Chem. Phys. 152, 184102 (2020)
                               doi:10.1063/5.0004997

                                      AUTHORS
                                      -------
  E. Apra, E. J. Bylaska, N. Govind, K. Kowalski, M. Valiev, D. Mejia-Rodriguez,
       A. Kunitsa, N. P. Bauman, A. Panyala, W. A. de Jong, T. P. Straatsma,
        H. J. J. van Dam, D. Wang, T. L. Windus, J. Hammond, J. Autschbach,
    K. Bhaskaran-Nair, J. Brabec, K. Lopata, S. A. Fischer, S. Krishnamoorthy,
     M. Jacquelin, W. Ma, M. Klemm, O. Villa, Y. Chen, V. Anisimov, F. Aquino,
    S. Hirata, M. T. Hackler, Eric Hermes, L. Jensen, J. E. Moore, J. C. Becca,
      V. Konjkov, T. Risthaus, M. Malagoli, A. Marenich, A. Otero-de-la-Roza,
        J. Mullin, P. Nichols, R. Peverati, J. Pittner, Y. Zhao, P.-D. Fan,
        A. Fonari, M. J. Williamson, R. J. Harrison, J. R. Rehr, M. Dupuis,
     D. Silverstein, D. M. A. Smith, J. Nieplocha, V. Tipparaju, M. Krishnan,
     B. E. Van Kuiken, A. Vazquez-Mayagoitia, M. Swart, Q. Wu, T. Van Voorhis,
     A. A. Auer, M. Nooijen, L. D. Crosby, E. Brown, G. Cisneros, G. I. Fann,
   H. Fruchtl, J. Garza, K. Hirao, R. A. Kendall, J. A. Nichols, K. Tsemekhman,
    K. Wolinski, J. Anchell, D. E. Bernholdt, P. Borowski, T. Clark, D. Clerc,
   H. Dachsel, M. J. O. Deegan, K. Dyall, D. Elwood, E. Glendening, M. Gutowski,
   A. C. Hess, J. Jaffe, B. G. Johnson, J. Ju, R. Kobayashi, R. Kutteh, Z. Lin,
   R. Littlefield, X. Long, B. Meng, T. Nakajima, S. Niu, L. Pollack, M. Rosing,
   K. Glaesemann, G. Sandrone, M. Stave, H. Taylor, G. Thomas, J. H. van Lenthe,
                               A. T. Wong, Z. Zhang.

 Total times  cpu:       83.5s     wall:      120.5s
