 argument  1 = input.nw
  NWChem w/ OpenMP: maximum threads =    1



============================== echo of input deck ==============================
 echo
 start H2O
 title "H2O"

 memory total 24 gb

 geometry units bohr
 symmetry c1
        O  0.00000000  0.00000000  0.00000000
        H  0.00000000  4.276804  0.00000000
        H  1.72558000 -0.64860000  0.00000000
 end

 basis spherical
   * library cc-pVTZ
 end

 mcscf
   active  8
   actelec 10
   multiplicity 1
   maxiter 40
   vectors input h2o.mos
   vectors output h2o.mos
 end

 task mcscf

 scf
   vectors input h2o.mos
   vectors output h2o-trash.mos
   noscf
 end

 tce
   2eorb
   2emet 13
   ccsd
   maxiter 300
 end

 set tce:print_integrals T
 set tce:qorb 8
 set tce:qela 5
 set tce:qelb 5

# set tce:qducc T
# set tce:nactv 3
# set tce:nonhf T
# set tce:ducc_model 6

 set tce:printtol 0.02

 task tce
================================================================================


                                         
                                         


             Northwest Computational Chemistry Package (NWChem) 7.0.1
             --------------------------------------------------------


                    Environmental Molecular Sciences Laboratory
                       Pacific Northwest National Laboratory
                                Richland, WA 99352

                              Copyright (c) 1994-2020
                       Pacific Northwest National Laboratory
                            Battelle Memorial Institute

             NWChem is an open-source computational chemistry package
                        distributed under the terms of the
                      Educational Community License (ECL) 2.0
             A copy of the license is included with this distribution
                              in the LICENSE.TXT file

                                  ACKNOWLEDGMENT
                                  --------------

            This software and its documentation were developed at the
            EMSL at Pacific Northwest National Laboratory, a multiprogram
            national laboratory, operated for the U.S. Department of Energy
            by Battelle under Contract Number DE-AC05-76RL01830. Support
            for this work was provided by the Department of Energy Office
            of Biological and Environmental Research, Office of Basic
            Energy Sciences, and the Office of Advanced Scientific Computing.


           Job information
           ---------------

    hostname        = WE46210
    program         = /home/baum612/code/nwchem/bin/LINUX64/nwchem
    date            = Thu May  2 12:46:07 2024

    compiled        = Tue_Apr_30_12:43:26_2024
    source          = /home/baum612/code/nwchem
    nwchem branch   = 7.0.0
    nwchem revision = nwchem_on_git-4191-g39d87d64de
    ga revision     = 5.8.1
    use scalapack   = F
    input           = input.nw
    prefix          = H2O.
    data base       = ./H2O.db
    status          = startup
    nproc           =        1
    time left       =     -1s



           Memory information
           ------------------

    heap     =  805306362 doubles =   6144.0 Mbytes
    stack    =  805306367 doubles =   6144.0 Mbytes
    global   = 1610612736 doubles =  12288.0 Mbytes (distinct from heap & stack)
    total    = 3221225465 doubles =  24576.0 Mbytes
    verify   = yes
    hardfail = no 


           Directory information
           ---------------------

  0 permanent = .
  0 scratch   = .




                                NWChem Input Module
                                -------------------


                                        H2O
                                        ---
 Turning off AUTOSYM since
 SYMMETRY directive was detected!


          ------
          auto-z
          ------
  autoz: The atoms group into disjoint clusters
 cluster   1:    1    3
 cluster   2:    2
 Connecting clusters   1   2 via atoms    1    2 r = 2.26
  autoz: regenerating connections with new bonds
  no constraints, skipping    0.0000000000000000     
  no constraints, skipping    0.0000000000000000     


                             Geometry "geometry" -> ""
                             -------------------------

 Output coordinates in a.u. (scale by  1.000000000 to convert to a.u.)

  No.       Tag          Charge          X              Y              Z
 ---- ---------------- ---------- -------------- -------------- --------------
    1 O                    8.0000    -0.17255800    -0.36282040     0.00000000
    2 H                    1.0000    -0.17255800     3.91398360     0.00000000
    3 H                    1.0000     1.55302200    -1.01142040     0.00000000

      Atomic Mass 
      ----------- 

      O                 15.994910
      H                  1.007825


 Effective nuclear repulsion energy (a.u.)       6.4018547506

            Nuclear Dipole moment (a.u.) 
            ----------------------------
        X                 Y               Z
 ---------------- ---------------- ----------------
    -0.0000000000    -0.0000000000     0.0000000000



                                Z-matrix (autoz)
                                -------- 

 Units are Angstrom for bonds and degrees for angles

      Type          Name      I     J     K     L     M      Value
      ----------- --------  ----- ----- ----- ----- ----- ----------
    1 Stretch                  1     2                       2.26319
    2 Stretch                  1     3                       0.97551
    3 Bend                     2     1     3               110.59992


            XYZ format geometry
            -------------------
     3
 geometry
 O                    -0.09131377    -0.19199630     0.00000000
 H                    -0.09131377     2.07119107     0.00000000
 H                     0.82182391    -0.53522066     0.00000000

 ==============================================================================
                                internuclear distances
 ------------------------------------------------------------------------------
       center one      |      center two      | atomic units |       a.u.
 ------------------------------------------------------------------------------
    3 H                |   1 O                |     1.84345  |     1.84345
 ------------------------------------------------------------------------------
                         number of included internuclear distances:          1
 ==============================================================================





 Summary of "ao basis" -> "" (spherical)
 ------------------------------------------------------------------------------
       Tag                 Description            Shells   Functions and Types
 ---------------- ------------------------------  ------  ---------------------
 *                          cc-pVTZ                   on all atoms 


                      Basis "ao basis" -> "ao basis" (spherical)
                      -----
  O (Oxygen)
  ----------
            Exponent  Coefficients 
       -------------- ---------------------------------------------------------
  1 S  1.53300000E+04  0.000508
  1 S  2.29900000E+03  0.003929
  1 S  5.22400000E+02  0.020243
  1 S  1.47300000E+02  0.079181
  1 S  4.75500000E+01  0.230687
  1 S  1.67600000E+01  0.433118
  1 S  6.20700000E+00  0.350260
  1 S  6.88200000E-01 -0.008154

  2 S  1.53300000E+04 -0.000115
  2 S  2.29900000E+03 -0.000895
  2 S  5.22400000E+02 -0.004636
  2 S  1.47300000E+02 -0.018724
  2 S  4.75500000E+01 -0.058463
  2 S  1.67600000E+01 -0.136463
  2 S  6.20700000E+00 -0.175740
  2 S  6.88200000E-01  0.603418

  3 S  1.75200000E+00  1.000000

  4 S  2.38400000E-01  1.000000

  5 P  3.44600000E+01  0.015928
  5 P  7.74900000E+00  0.099740
  5 P  2.28000000E+00  0.310492

  6 P  7.15600000E-01  1.000000

  7 P  2.14000000E-01  1.000000

  8 D  2.31400000E+00  1.000000

  9 D  6.45000000E-01  1.000000

 10 F  1.42800000E+00  1.000000

  H (Hydrogen)
  ------------
            Exponent  Coefficients 
       -------------- ---------------------------------------------------------
  1 S  3.38700000E+01  0.006068
  1 S  5.09500000E+00  0.045308
  1 S  1.15900000E+00  0.202822

  2 S  3.25800000E-01  1.000000

  3 S  1.02700000E-01  1.000000

  4 P  1.40700000E+00  1.000000

  5 P  3.88000000E-01  1.000000

  6 D  1.05700000E+00  1.000000



 Summary of "ao basis" -> "ao basis" (spherical)
 ------------------------------------------------------------------------------
       Tag                 Description            Shells   Functions and Types
 ---------------- ------------------------------  ------  ---------------------
 O                          cc-pVTZ                 10       30   4s3p2d1f
 H                          cc-pVTZ                  6       14   3s2p1d



                            NWChem Direct MCSCF Module
                            --------------------------


                                        H2O


     -----------------------------------
       Basis functions:             58
       Inactive shells:              0
       Active shells:                8
       Active electrons:            10
       Symmetry:                    a       
       Multiplicity:                 1
       Orbital rotations:          400
     -----------------------------------

     -----------------------------------
       E2 extrapolation:             F
       Conjugacy:                    T
       Micro CI relax:               T
       Canonical orbitals:           T
       Maximum iterations:          40
       Converge threshold:    1.00E-04
       Conjugacy resets:            20
       Initial levelshift:        0.10
     -----------------------------------

 Loading old vectors from job with title :

H2O


   input molecular orbitals = ./h2o.mos
  output molecular orbtials = ./h2o.mos

       No. of determinants:          3136


  Starting Orbital Energies
   -20.610925    -1.306179    -0.671444    -0.548054    -0.388845    -0.180329
    -0.026205    -0.013009     0.287355     0.399022     0.621482     0.730173
     0.776097     0.828236     0.857857     0.909073     0.974777     1.275561
     1.350977     1.717834     1.760666     2.029800     2.035940     2.156175
     2.571184     2.758406     3.441750     3.455116     3.455334     3.458814
     3.475820     3.487943     3.531939     3.541267     3.740590     3.873787
     3.911310     3.955800     4.012017     4.018954     4.163421     4.395811
     4.447897     4.723610     5.143107     5.540053     5.549195     5.796005
     5.802674     6.705009     6.742872     6.809033     6.832994     6.908469
     7.032467     7.057121     7.512469    10.810961

  Orbital Symmetry Irreps
a    a    a    a    a    a    a    a    a    a    a    a    a    a    a   
a    a    a    a    a    a    a    a    a    a    a    a    a    a    a   
a    a    a    a    a    a    a    a    a    a    a    a    a    a    a   
a    a    a    a    a    a    a    a    a    a    a    a    a   

 Integral file          = ./H2O.aoints.0
 Record size in doubles =  65536        No. of integs per rec  =  43688
 Max. records in memory =     49        Max. records in file   = 250651
 No. of bits per label  =      8        No. of bits per value  =     64


 #quartets = 3.189D+04 #integrals = 6.266D+05 #direct =  0.0% #cached =100.0%




          %%%%% MacroIteration   1 %%%%%


          Number of sigma calls:       23
                       o<<<<< (aa):             0.00
                       o<<<<< (bb):             0.01
                       o<<<<< (ab):             0.06
                       o<<<<< (total)           0.07
                       o<<<<< (aa) ff           0.00
                       o<<<<< (aa) gop          0.00
                       o<<<<< (aa) dot          0.00
                       o<<<<< (ab) str          0.00
                       o<<<<< (ab) gath         0.00
                       o<<<<< (ab) dotab        0.00
                       o<<<<< (ab) scat         0.00
                       o<<<<< (ab) sync         0.00
                       o<<<<< Density           0.01
                       o<<<<< Density one       0.00
                       o<<<<< Density two       0.00
                       o<<<<< Density ab        0.01
                       o<<<<< Spin adapt        0.31
                       o<<<<< Symm adapt        0.00

                       o<<<<< (ab) max sync:      0.00

           >>>| Valence CI:            -82.378143534408
           >>>| MCSCF energy:          -75.976288783844
           >>>| Gradient norm:          0.190323130D-02
     --- Warning:    1 Hessian diagonals < 0.05 ---

                              ----- Line search ------

        step       energy         lsg     num-lsg   num-lsh   lsrat    time
      ------- ---------------- --------- --------- --------- ------- --------
       0.0000     -75.97628878 -8.80D-07  0.00D+00  0.00D+00 0.0D+00      1.0

          Number of sigma calls:       21
                       o<<<<< (aa):             0.00
                       o<<<<< (bb):             0.00
                       o<<<<< (ab):             0.06
                       o<<<<< (total)           0.06
                       o<<<<< (aa) ff           0.00
                       o<<<<< (aa) gop          0.00
                       o<<<<< (aa) dot          0.00
                       o<<<<< (ab) str          0.00
                       o<<<<< (ab) gath         0.00
                       o<<<<< (ab) dotab        0.00
                       o<<<<< (ab) scat         0.00
                       o<<<<< (ab) sync         0.00
                       o<<<<< Density           0.00
                       o<<<<< Density one       0.00
                       o<<<<< Density two       0.00
                       o<<<<< Density ab        0.00
                       o<<<<< Spin adapt        0.34
                       o<<<<< Symm adapt        0.00

                       o<<<<< (ab) max sync:      0.00
       1.0000     -75.97628929 -1.31D-07 -1.31D-07  7.48D-07 1.5D-01      1.5

          Number of sigma calls:       16
                       o<<<<< (aa):             0.00
                       o<<<<< (bb):             0.00
                       o<<<<< (ab):             0.04
                       o<<<<< (total)           0.05
                       o<<<<< (aa) ff           0.00
                       o<<<<< (aa) gop          0.00
                       o<<<<< (aa) dot          0.00
                       o<<<<< (ab) str          0.00
                       o<<<<< (ab) gath         0.00
                       o<<<<< (ab) dotab        0.00
                       o<<<<< (ab) scat         0.00
                       o<<<<< (ab) sync         0.00
                       o<<<<< Density           0.00
                       o<<<<< Density one       0.00
                       o<<<<< Density two       0.00
                       o<<<<< Density ab        0.00
                       o<<<<< Spin adapt        0.30
                       o<<<<< Symm adapt        0.00

                       o<<<<< (ab) max sync:      0.00
       1.1753     -75.97628930  9.60D-11  9.17D-11  7.49D-07 1.1D-04      1.9
     --- Orbitals canonicalized ---



          %%%%% MacroIteration   2 %%%%%


          Number of sigma calls:       22
                       o<<<<< (aa):             0.00
                       o<<<<< (bb):             0.00
                       o<<<<< (ab):             0.07
                       o<<<<< (total)           0.07
                       o<<<<< (aa) ff           0.00
                       o<<<<< (aa) gop          0.00
                       o<<<<< (aa) dot          0.00
                       o<<<<< (ab) str          0.00
                       o<<<<< (ab) gath         0.00
                       o<<<<< (ab) dotab        0.00
                       o<<<<< (ab) scat         0.00
                       o<<<<< (ab) sync         0.00
                       o<<<<< Density           0.01
                       o<<<<< Density one       0.00
                       o<<<<< Density two       0.00
                       o<<<<< Density ab        0.01
                       o<<<<< Spin adapt        0.35
                       o<<<<< Symm adapt        0.00

                       o<<<<< (ab) max sync:      0.00

           >>>| Valence CI:            -82.378144051413
           >>>| MCSCF energy:          -75.976289300849
           >>>| Gradient norm:          0.258579274D-03
     --- Warning:    4 Hessian diagonals < 0.05 ---
     --- Conjugacy reset ---

                              ----- Line search ------

        step       energy         lsg     num-lsg   num-lsh   lsrat    time
      ------- ---------------- --------- --------- --------- ------- --------
       0.0000     -75.97628930 -2.09D-08  0.00D+00  0.00D+00 0.0D+00      2.5

          Number of sigma calls:       13
                       o<<<<< (aa):             0.00
                       o<<<<< (bb):             0.00
                       o<<<<< (ab):             0.03
                       o<<<<< (total)           0.04
                       o<<<<< (aa) ff           0.00
                       o<<<<< (aa) gop          0.00
                       o<<<<< (aa) dot          0.00
                       o<<<<< (ab) str          0.00
                       o<<<<< (ab) gath         0.00
                       o<<<<< (ab) dotab        0.00
                       o<<<<< (ab) scat         0.00
                       o<<<<< (ab) sync         0.00
                       o<<<<< Density           0.01
                       o<<<<< Density one       0.00
                       o<<<<< Density two       0.00
                       o<<<<< Density ab        0.01
                       o<<<<< Spin adapt        0.13
                       o<<<<< Symm adapt        0.00

                       o<<<<< (ab) max sync:      0.00
       1.0000     -75.97628931 -3.34D-09 -3.35D-09  1.76D-08 1.6D-01      2.8

          Number of sigma calls:       11
                       o<<<<< (aa):             0.00
                       o<<<<< (bb):             0.00
                       o<<<<< (ab):             0.03
                       o<<<<< (total)           0.04
                       o<<<<< (aa) ff           0.00
                       o<<<<< (aa) gop          0.00
                       o<<<<< (aa) dot          0.00
                       o<<<<< (ab) str          0.00
                       o<<<<< (ab) gath         0.00
                       o<<<<< (ab) dotab        0.00
                       o<<<<< (ab) scat         0.00
                       o<<<<< (ab) sync         0.00
                       o<<<<< Density           0.01
                       o<<<<< Density one       0.00
                       o<<<<< Density two       0.00
                       o<<<<< Density ab        0.01
                       o<<<<< Spin adapt        0.09
                       o<<<<< Symm adapt        0.00

                       o<<<<< (ab) max sync:      0.00
       1.1902     -75.97628931  1.33D-12  2.18D-12  1.76D-08 6.4D-05      3.0



          %%%%% MacroIteration   3 %%%%%


          Number of sigma calls:        1
                       o<<<<< (aa):             0.00
                       o<<<<< (bb):             0.00
                       o<<<<< (ab):             0.00
                       o<<<<< (total)           0.00
                       o<<<<< (aa) ff           0.00
                       o<<<<< (aa) gop          0.00
                       o<<<<< (aa) dot          0.00
                       o<<<<< (ab) str          0.00
                       o<<<<< (ab) gath         0.00
                       o<<<<< (ab) dotab        0.00
                       o<<<<< (ab) scat         0.00
                       o<<<<< (ab) sync         0.00
                       o<<<<< Density           0.01
                       o<<<<< Density one       0.00
                       o<<<<< Density two       0.00
                       o<<<<< Density ab        0.01
                       o<<<<< Spin adapt        0.00
                       o<<<<< Symm adapt        0.00

                       o<<<<< (ab) max sync:      0.00

           >>>| Valence CI:            -82.378144063874
           >>>| MCSCF energy:          -75.976289313310
           >>>| Gradient norm:          0.544588939D-04




     ==============================
            MCSCF Converged
     ==============================



          Canonical Eigenvalues

              1      
    1  -20.6110
    2   -1.3063
    3   -0.6715
    4   -0.5482
    5   -0.3876
    6   -0.1817
    7   -0.0262
    8   -0.0130
    9    0.2870
   10    0.3996
   11    0.6218
   12    0.7281
   13    0.7763
   14    0.8280
   15    0.8571
   16    0.9085
   17    0.9752
   18    1.2732
   19    1.3506
   20    1.7175
   21    1.7590
   22    2.0298
   23    2.0357
   24    2.1557
   25    2.5703
   26    2.7578
   27    3.4421
   28    3.4554
   29    3.4556
   30    3.4593
   31    3.4756
   32    3.4876
   33    3.5294
   34    3.5405
   35    3.7406
   36    3.8738
   37    3.9108
   38    3.9553
   39    4.0080
   40    4.0185
   41    4.1632
   42    4.3957
   43    4.4480
   44    4.7235
   45    5.1428
   46    5.5398
   47    5.5485
   48    5.7959
   49    5.8022
   50    6.7047
   51    6.7414
   52    6.8087
   53    6.8329
   54    6.9064
   55    7.0320
   56    7.0570
   57    7.5120
   58   10.8099


          Converged CI vector

   Index           Coefficient          Config. Occupation
         1         -0.78267978          1  2  3  4  5  1  2  3  4  5
         2         -0.25346745          1  2  3  4  5  1  2  3  4  6
        23         -0.04663175          1  2  3  4  5  1  2  3  5  8
         9         -0.03026898          1  2  3  4  5  1  2  4  5  7
        41         -0.02289168          1  2  3  4  5  1  2  5  7  8
        57         -0.25346745          1  2  3  4  6  1  2  3  4  5
        58          0.47807750          1  2  3  4  6  1  2  3  4  6
        83          0.03342068          1  2  3  4  6  1  2  3  6  8
        69          0.02255440          1  2  3  4  6  1  2  4  6  7
      1233         -0.04663175          1  2  3  5  8  1  2  3  4  5
      1255          0.04418444          1  2  3  5  8  1  2  3  5  8
      1241          0.02794433          1  2  3  5  8  1  2  4  5  7
      1458          0.03342068          1  2  3  6  8  1  2  3  4  6
      1483         -0.02896790          1  2  3  6  8  1  2  3  6  8
       449         -0.03026898          1  2  4  5  7  1  2  3  4  5
       471          0.02794433          1  2  4  5  7  1  2  3  5  8
       457          0.05907013          1  2  4  5  7  1  2  4  5  7
       458         -0.02478099          1  2  4  5  7  1  3  4  5  7
       674          0.02255440          1  2  4  6  7  1  2  3  4  6
       685         -0.03738827          1  2  4  6  7  1  2  4  6  7
      2241         -0.02289168          1  2  5  7  8  1  2  3  4  5
       513         -0.02478099          1  3  4  5  7  1  2  4  5  7
       514          0.02328843          1  3  4  5  7  1  3  4  5  7

          Number of sigma calls:        1
                       o<<<<< (aa):             0.00
                       o<<<<< (bb):             0.00
                       o<<<<< (ab):             0.00
                       o<<<<< (total)           0.00
                       o<<<<< (aa) ff           0.00
                       o<<<<< (aa) gop          0.00
                       o<<<<< (aa) dot          0.00
                       o<<<<< (ab) str          0.00
                       o<<<<< (ab) gath         0.00
                       o<<<<< (ab) dotab        0.00
                       o<<<<< (ab) scat         0.00
                       o<<<<< (ab) sync         0.00
                       o<<<<< Density           0.01
                       o<<<<< Density one       0.00
                       o<<<<< Density two       0.00
                       o<<<<< Density ab        0.00
                       o<<<<< Spin adapt        0.00
                       o<<<<< Symm adapt        0.00

                       o<<<<< (ab) max sync:      0.00



          Natural orbital occupation numbers

              1      
    1    2.0000
    2    1.9987
    3    1.9848
    4    1.9746
    5    1.4234
    6    0.5771
    7    0.0265
    8    0.0150


          Number of sigma calls:       23
                       o<<<<< (aa):             0.00
                       o<<<<< (bb):             0.00
                       o<<<<< (ab):             0.05
                       o<<<<< (total)           0.06
                       o<<<<< (aa) ff           0.00
                       o<<<<< (aa) gop          0.00
                       o<<<<< (aa) dot          0.00
                       o<<<<< (ab) str          0.00
                       o<<<<< (ab) gath         0.00
                       o<<<<< (ab) dotab        0.00
                       o<<<<< (ab) scat         0.00
                       o<<<<< (ab) sync         0.00
                       o<<<<< Density           0.01
                       o<<<<< Density one       0.00
                       o<<<<< Density two       0.00
                       o<<<<< Density ab        0.01
                       o<<<<< Spin adapt        0.30
                       o<<<<< Symm adapt        0.00

                       o<<<<< (ab) max sync:      0.00


       Final MCSCF results 
       ------------------- 

       Total MCSCF energy =    -75.976289313309
            Gradient norm =      5.4D-05

    CPU time for solution =      3.5s
   Wall time for solution =      6.8s



                        Analysis of MCSCF natural orbitals
                        ----------------------------------

 Vector    1  Occ=1.999992D+00  E=-2.061099D+01  Symmetry=a
              MO Center= -9.1D-02, -1.9D-01, -9.0D-14, r^2= 1.5D-02
   Bfn.  Coefficient  Atom+Function         Bfn.  Coefficient  Atom+Function  
  ----- ------------  ---------------      ----- ------------  ---------------
     1      0.974225  1 O  s          

 Vector    2  Occ=1.998680D+00  E=-1.306257D+00  Symmetry=a
              MO Center= -2.7D-01, -1.4D-01,  6.3D-11, r^2= 4.2D-01
   Bfn.  Coefficient  Atom+Function         Bfn.  Coefficient  Atom+Function  
  ----- ------------  ---------------      ----- ------------  ---------------
     2      0.552359  1 O  s                  4      0.402702  1 O  s          
     3      0.154089  1 O  s          

 Vector    3  Occ=1.984799D+00  E=-6.715266D-01  Symmetry=a
              MO Center= -6.2D-02, -2.0D-01, -6.2D-11, r^2= 6.2D-01
   Bfn.  Coefficient  Atom+Function         Bfn.  Coefficient  Atom+Function  
  ----- ------------  ---------------      ----- ------------  ---------------
    10      0.447865  1 O  pz                13      0.379220  1 O  pz         
     7      0.369873  1 O  pz         

 Vector    4  Occ=1.974577D+00  E=-5.481582D-01  Symmetry=a
              MO Center=  3.3D-01, -3.4D-01, -1.7D-12, r^2= 5.8D-01
   Bfn.  Coefficient  Atom+Function         Bfn.  Coefficient  Atom+Function  
  ----- ------------  ---------------      ----- ------------  ---------------
     8      0.332901  1 O  px                46      0.282366  3 H  s          
     5      0.277709  1 O  px                45      0.188416  3 H  s          
    11      0.179813  1 O  px         

 Vector    5  Occ=1.423356D+00  E=-3.875648D-01  Symmetry=a
              MO Center= -6.8D-02,  8.8D-01, -2.5D-13, r^2= 1.9D+00
   Bfn.  Coefficient  Atom+Function         Bfn.  Coefficient  Atom+Function  
  ----- ------------  ---------------      ----- ------------  ---------------
    32      0.319687  2 H  s                  9      0.308557  1 O  py         
    33      0.264453  2 H  s                  6      0.241552  1 O  py         
    12      0.215368  1 O  py                31      0.155108  2 H  s          

 Vector    6  Occ=5.771141D-01  E=-1.816636D-01  Symmetry=a
              MO Center= -7.9D-02,  1.0D+00, -5.3D-13, r^2= 2.0D+00
   Bfn.  Coefficient  Atom+Function         Bfn.  Coefficient  Atom+Function  
  ----- ------------  ---------------      ----- ------------  ---------------
    32      0.399291  2 H  s                  9     -0.356817  1 O  py         
     6     -0.276514  1 O  py                33      0.273101  2 H  s          
    12     -0.206164  1 O  py                31      0.182942  2 H  s          

 Vector    7  Occ=2.651198D-02  E=-2.620174D-02  Symmetry=a
              MO Center=  5.1D-01, -4.1D-01, -5.9D-13, r^2= 6.0D-01
   Bfn.  Coefficient  Atom+Function         Bfn.  Coefficient  Atom+Function  
  ----- ------------  ---------------      ----- ------------  ---------------
    46      0.699525  3 H  s                  5     -0.480977  1 O  px         
     8     -0.420700  1 O  px                45      0.346405  3 H  s          
     2     -0.288306  1 O  s                  4     -0.253547  1 O  s          
     6      0.166856  1 O  py                 9      0.150342  1 O  py         

 Vector    8  Occ=1.497008D-02  E=-1.299926D-02  Symmetry=a
              MO Center=  4.7D-02, -2.4D-01, -8.8D-11, r^2= 1.2D+00
   Bfn.  Coefficient  Atom+Function         Bfn.  Coefficient  Atom+Function  
  ----- ------------  ---------------      ----- ------------  ---------------
    13      0.808765  1 O  pz                 7     -0.640884  1 O  pz         
    10     -0.275709  1 O  pz                53      0.166622  3 H  pz         

 Vector    9  Occ=0.000000D+00  E= 2.870413D-01  Symmetry=a
              MO Center=  1.1D+00, -6.6D-01,  3.2D-11, r^2= 3.6D+00
   Bfn.  Coefficient  Atom+Function         Bfn.  Coefficient  Atom+Function  
  ----- ------------  ---------------      ----- ------------  ---------------
    47      1.957113  3 H  s                  4     -1.249351  1 O  s          
    11     -0.556904  1 O  px                51     -0.416325  3 H  px         
    46     -0.266835  3 H  s                 52      0.170995  3 H  py         
    12      0.155474  1 O  py                32     -0.151115  2 H  s          

 Vector   10  Occ=0.000000D+00  E= 3.995532D-01  Symmetry=a
              MO Center= -1.1D-01,  2.3D+00,  6.2D-13, r^2= 3.2D+00
   Bfn.  Coefficient  Atom+Function         Bfn.  Coefficient  Atom+Function  
  ----- ------------  ---------------      ----- ------------  ---------------
    33      1.734037  2 H  s                 32     -1.353057  2 H  s          
    47     -0.430287  3 H  s                 46      0.298989  3 H  s          
    12     -0.296100  1 O  py                 4     -0.187042  1 O  s          

 Vector   11  Occ=0.000000D+00  E= 6.218380D-01  Symmetry=a
              MO Center= -5.3D-01,  4.8D-01, -2.9D-12, r^2= 2.3D+00
   Bfn.  Coefficient  Atom+Function         Bfn.  Coefficient  Atom+Function  
  ----- ------------  ---------------      ----- ------------  ---------------
    46      2.704667  3 H  s                  4     -2.180608  1 O  s          
    11     -2.157153  1 O  px                51     -0.829240  3 H  px         
    12      0.723072  1 O  py                37     -0.396734  2 H  px         
    47      0.332121  3 H  s                 52      0.271707  3 H  py         
    23     -0.191246  1 O  d  2              33     -0.162546  2 H  s          

 Vector   12  Occ=0.000000D+00  E= 7.280896D-01  Symmetry=a
              MO Center= -5.7D-02,  1.1D+00,  1.5D-13, r^2= 2.3D+00
   Bfn.  Coefficient  Atom+Function         Bfn.  Coefficient  Atom+Function  
  ----- ------------  ---------------      ----- ------------  ---------------
    12      0.662448  1 O  py                38     -0.619770  2 H  py         
     9     -0.489954  1 O  py                 4      0.378763  1 O  s          
    11      0.273600  1 O  px                32     -0.254913  2 H  s          
    47     -0.224858  3 H  s                  2     -0.183537  1 O  s          
     6     -0.167535  1 O  py         

 Vector   13  Occ=0.000000D+00  E= 7.763281D-01  Symmetry=a
              MO Center=  1.6D-02,  1.7D+00,  1.9D-12, r^2= 1.9D+00
   Bfn.  Coefficient  Atom+Function         Bfn.  Coefficient  Atom+Function  
  ----- ------------  ---------------      ----- ------------  ---------------
    39      0.959726  2 H  pz                53     -0.486149  3 H  pz         
    13      0.276606  1 O  pz         

 Vector   14  Occ=0.000000D+00  E= 8.279797D-01  Symmetry=a
              MO Center=  7.0D-02,  7.4D-01, -3.0D-13, r^2= 3.2D+00
   Bfn.  Coefficient  Atom+Function         Bfn.  Coefficient  Atom+Function  
  ----- ------------  ---------------      ----- ------------  ---------------
    46     -1.433666  3 H  s                  4      1.364420  1 O  s          
    11      1.205564  1 O  px                52     -0.814741  3 H  py         
    37     -0.716797  2 H  px                12     -0.344516  1 O  py         
    47     -0.285497  3 H  s                 38     -0.278964  2 H  py         
    51      0.245988  3 H  px                33      0.227055  2 H  s          

 Vector   15  Occ=0.000000D+00  E= 8.570831D-01  Symmetry=a
              MO Center=  3.3D-01,  5.6D-01, -1.0D-12, r^2= 2.9D+00
   Bfn.  Coefficient  Atom+Function         Bfn.  Coefficient  Atom+Function  
  ----- ------------  ---------------      ----- ------------  ---------------
    37      0.652744  2 H  px                52     -0.643786  3 H  py         
    11     -0.339003  1 O  px                 9      0.318149  1 O  py         
     4      0.311756  1 O  s                 47     -0.288292  3 H  s          
    38     -0.266705  2 H  py                 8      0.261267  1 O  px         
     2     -0.238348  1 O  s                 46      0.207730  3 H  s          

 Vector   16  Occ=0.000000D+00  E= 9.085043D-01  Symmetry=a
              MO Center=  3.7D-01, -2.6D-02, -5.6D-12, r^2= 2.5D+00
   Bfn.  Coefficient  Atom+Function         Bfn.  Coefficient  Atom+Function  
  ----- ------------  ---------------      ----- ------------  ---------------
    53      1.153838  3 H  pz                13     -0.907611  1 O  pz         
    39      0.451976  2 H  pz         

 Vector   17  Occ=0.000000D+00  E= 9.751976D-01  Symmetry=a
              MO Center= -4.3D-02, -5.3D-01,  2.9D-11, r^2= 2.5D+00
   Bfn.  Coefficient  Atom+Function         Bfn.  Coefficient  Atom+Function  
  ----- ------------  ---------------      ----- ------------  ---------------
     4      2.896616  1 O  s                 46     -1.831230  3 H  s          
    12     -1.449969  1 O  py                51      1.126416  3 H  px         
    47     -0.823629  3 H  s                 11      0.738425  1 O  px         
     2     -0.685525  1 O  s                  8      0.535827  1 O  px         
    38     -0.469753  2 H  py                52      0.432008  3 H  py         

 Vector   18  Occ=0.000000D+00  E= 1.273195D+00  Symmetry=a
              MO Center= -7.8D-02,  6.9D-01,  4.3D-11, r^2= 2.3D+00
   Bfn.  Coefficient  Atom+Function         Bfn.  Coefficient  Atom+Function  
  ----- ------------  ---------------      ----- ------------  ---------------
     4      3.216330  1 O  s                 46     -1.786742  3 H  s          
    11      0.905781  1 O  px                 2     -0.894344  1 O  s          
    51      0.800833  3 H  px                38      0.733812  2 H  py         
    52     -0.723941  3 H  py                12      0.578906  1 O  py         
     8      0.532340  1 O  px                 9     -0.492729  1 O  py         


 Wrote Lagrangian and 1- and 2-particle density matrices to ./H2O.mcpdm


     Multipole analysis of the density
     ---------------------------------

     L   x y z        total        nuclear
     -   - - -        -----        -------
     0   0 0 0     -0.000000     10.000000

     1   1 0 0      0.581615     -0.000000
     1   0 1 0     -0.128770     -0.000000
     1   0 0 1      0.000000      0.000000

     2   2 0 0     -4.453366      2.679864
     2   1 1 0     -0.602861     -1.745287
     2   1 0 1     -0.000000      0.000000
     2   0 2 0     -4.147327     17.395348
     2   0 1 1     -0.000000      0.000000
     2   0 0 2     -5.935687      0.000000


  Mulliken analysis of the total density
  --------------------------------------

    Atom       Charge   Shell Charges
 -----------   ------   -------------------------------------------------------
    1 O    8     8.25   1.95  1.06  0.25  0.64  1.22  1.95  1.17  0.00  0.01  0.00
    2 H    1     0.98   0.17  0.47  0.34 -0.00  0.00  0.00
    3 H    1     0.76   0.25  0.40  0.03  0.02  0.06  0.01

    Mulliken analysis of the active space density
    ---------------------------------------------

    Atom       Charge   Shell Charges
 -----------   ------   -------------------------------------------------------
    1 O    8     8.25   1.95  1.06  0.25  0.64  1.22  1.95  1.17  0.00  0.01  0.00
    2 H    1     0.98   0.17  0.47  0.34 -0.00  0.00  0.00
    3 H    1     0.76   0.25  0.40  0.03  0.02  0.06  0.01

 Parallel integral file used      15 records with       0 large values


 Task  times  cpu:        3.6s     wall:        6.9s


                                NWChem Input Module
                                -------------------


                                 NWChem SCF Module
                                 -----------------


                                        H2O



  ao basis        = "ao basis"
  functions       =    58
  atoms           =     3
  closed shells   =     5
  open shells     =     0
  charge          =   0.00
  wavefunction    = RHF 
  input vectors   = ./h2o.mos
  output vectors  = ./h2o-trash.mos
  use symmetry    = F
  symmetry adapt  = F


 Summary of "ao basis" -> "ao basis" (spherical)
 ------------------------------------------------------------------------------
       Tag                 Description            Shells   Functions and Types
 ---------------- ------------------------------  ------  ---------------------
 O                          cc-pVTZ                 10       30   4s3p2d1f
 H                          cc-pVTZ                  6       14   3s2p1d



 Forming initial guess at       6.9s


 Loading old vectors from job with title :

H2O


 Starting SCF solution at       6.9s



 ----------------------------------------------
         Quadratically convergent ROHF

 Convergence threshold     :          1.000E-04
 Maximum no. of iterations :           30
 Final Fock-matrix accuracy:          1.000E-07
 ----------------------------------------------


 Integral file          = ./H2O.aoints.0
 Record size in doubles =  65536        No. of integs per rec  =  43688
 Max. records in memory =     49        Max. records in file   = 250689
 No. of bits per label  =      8        No. of bits per value  =     64


 #quartets = 3.167D+04 #integrals = 6.143D+05 #direct =  0.0% #cached =100.0%



       Final RHF  results 
       ------------------ 

         Total SCF energy =    -75.760103024955
      One-electron energy =   -117.312434594169
      Two-electron energy =     35.150476818650
 Nuclear repulsion energy =      6.401854750564

        Time for solution =      0.1s


             Final eigenvalues
             -----------------

              1      
    1  -20.6110
    2   -1.3063
    3   -0.6715
    4   -0.5482
    5   -0.3876
    6   -0.1817
    7   -0.0262
    8   -0.0130
    9    0.2870
   10    0.3996
   11    0.6218
   12    0.7281
   13    0.7763
   14    0.8280
   15    0.8571

                       ROHF Final Molecular Orbital Analysis
                       -------------------------------------

 Vector    2  Occ=2.000000D+00  E=-1.306257D+00
              MO Center= -2.7D-01, -1.4D-01,  6.3D-11, r^2= 4.2D-01
   Bfn.  Coefficient  Atom+Function         Bfn.  Coefficient  Atom+Function  
  ----- ------------  ---------------      ----- ------------  ---------------
     2      0.552359  1 O  s                  4      0.402702  1 O  s          
     3      0.154089  1 O  s          

 Vector    3  Occ=2.000000D+00  E=-6.715266D-01
              MO Center= -6.2D-02, -2.0D-01, -6.2D-11, r^2= 6.2D-01
   Bfn.  Coefficient  Atom+Function         Bfn.  Coefficient  Atom+Function  
  ----- ------------  ---------------      ----- ------------  ---------------
    10      0.447865  1 O  pz                13      0.379220  1 O  pz         
     7      0.369873  1 O  pz         

 Vector    4  Occ=2.000000D+00  E=-5.481582D-01
              MO Center=  3.3D-01, -3.4D-01, -1.7D-12, r^2= 5.8D-01
   Bfn.  Coefficient  Atom+Function         Bfn.  Coefficient  Atom+Function  
  ----- ------------  ---------------      ----- ------------  ---------------
     8      0.332901  1 O  px                46      0.282366  3 H  s          
     5      0.277709  1 O  px                45      0.188416  3 H  s          
    11      0.179813  1 O  px         

 Vector    5  Occ=2.000000D+00  E=-3.875648D-01
              MO Center= -6.8D-02,  8.8D-01, -2.5D-13, r^2= 1.9D+00
   Bfn.  Coefficient  Atom+Function         Bfn.  Coefficient  Atom+Function  
  ----- ------------  ---------------      ----- ------------  ---------------
    32      0.319687  2 H  s                  9      0.308557  1 O  py         
    33      0.264453  2 H  s                  6      0.241552  1 O  py         
    12      0.215368  1 O  py                31      0.155108  2 H  s          

 Vector    6  Occ=0.000000D+00  E=-1.816636D-01
              MO Center= -7.9D-02,  1.0D+00, -5.3D-13, r^2= 2.0D+00
   Bfn.  Coefficient  Atom+Function         Bfn.  Coefficient  Atom+Function  
  ----- ------------  ---------------      ----- ------------  ---------------
    32      0.399291  2 H  s                  9     -0.356817  1 O  py         
     6     -0.276514  1 O  py                33      0.273101  2 H  s          
    12     -0.206164  1 O  py                31      0.182942  2 H  s          

 Vector    7  Occ=0.000000D+00  E=-2.620174D-02
              MO Center=  5.1D-01, -4.1D-01, -5.9D-13, r^2= 6.0D-01
   Bfn.  Coefficient  Atom+Function         Bfn.  Coefficient  Atom+Function  
  ----- ------------  ---------------      ----- ------------  ---------------
    46      0.699525  3 H  s                  5     -0.480977  1 O  px         
     8     -0.420700  1 O  px                45      0.346405  3 H  s          
     2     -0.288306  1 O  s                  4     -0.253547  1 O  s          
     6      0.166856  1 O  py                 9      0.150342  1 O  py         

 Vector    8  Occ=0.000000D+00  E=-1.299926D-02
              MO Center=  4.7D-02, -2.4D-01, -8.8D-11, r^2= 1.2D+00
   Bfn.  Coefficient  Atom+Function         Bfn.  Coefficient  Atom+Function  
  ----- ------------  ---------------      ----- ------------  ---------------
    13      0.808765  1 O  pz                 7     -0.640884  1 O  pz         
    10     -0.275709  1 O  pz                53      0.166622  3 H  pz         

 Vector    9  Occ=0.000000D+00  E= 2.870413D-01
              MO Center=  1.1D+00, -6.6D-01,  3.2D-11, r^2= 3.6D+00
   Bfn.  Coefficient  Atom+Function         Bfn.  Coefficient  Atom+Function  
  ----- ------------  ---------------      ----- ------------  ---------------
    47      1.957113  3 H  s                  4     -1.249351  1 O  s          
    11     -0.556904  1 O  px                51     -0.416325  3 H  px         
    46     -0.266835  3 H  s                 52      0.170995  3 H  py         
    12      0.155474  1 O  py                32     -0.151115  2 H  s          

 Vector   10  Occ=0.000000D+00  E= 3.995532D-01
              MO Center= -1.1D-01,  2.3D+00,  6.2D-13, r^2= 3.2D+00
   Bfn.  Coefficient  Atom+Function         Bfn.  Coefficient  Atom+Function  
  ----- ------------  ---------------      ----- ------------  ---------------
    33      1.734037  2 H  s                 32     -1.353057  2 H  s          
    47     -0.430287  3 H  s                 46      0.298989  3 H  s          
    12     -0.296100  1 O  py                 4     -0.187042  1 O  s          

 Vector   11  Occ=0.000000D+00  E= 6.218380D-01
              MO Center= -5.3D-01,  4.8D-01, -2.9D-12, r^2= 2.3D+00
   Bfn.  Coefficient  Atom+Function         Bfn.  Coefficient  Atom+Function  
  ----- ------------  ---------------      ----- ------------  ---------------
    46      2.704667  3 H  s                  4     -2.180608  1 O  s          
    11     -2.157153  1 O  px                51     -0.829240  3 H  px         
    12      0.723072  1 O  py                37     -0.396734  2 H  px         
    47      0.332121  3 H  s                 52      0.271707  3 H  py         
    23     -0.191246  1 O  d  2              33     -0.162546  2 H  s          

 Vector   12  Occ=0.000000D+00  E= 7.280896D-01
              MO Center= -5.7D-02,  1.1D+00,  1.5D-13, r^2= 2.3D+00
   Bfn.  Coefficient  Atom+Function         Bfn.  Coefficient  Atom+Function  
  ----- ------------  ---------------      ----- ------------  ---------------
    12      0.662448  1 O  py                38     -0.619770  2 H  py         
     9     -0.489954  1 O  py                 4      0.378763  1 O  s          
    11      0.273600  1 O  px                32     -0.254913  2 H  s          
    47     -0.224858  3 H  s                  2     -0.183537  1 O  s          
     6     -0.167535  1 O  py         

 Vector   13  Occ=0.000000D+00  E= 7.763281D-01
              MO Center=  1.6D-02,  1.7D+00,  1.9D-12, r^2= 1.9D+00
   Bfn.  Coefficient  Atom+Function         Bfn.  Coefficient  Atom+Function  
  ----- ------------  ---------------      ----- ------------  ---------------
    39      0.959726  2 H  pz                53     -0.486149  3 H  pz         
    13      0.276606  1 O  pz         

 Vector   14  Occ=0.000000D+00  E= 8.279797D-01
              MO Center=  7.0D-02,  7.4D-01, -3.0D-13, r^2= 3.2D+00
   Bfn.  Coefficient  Atom+Function         Bfn.  Coefficient  Atom+Function  
  ----- ------------  ---------------      ----- ------------  ---------------
    46     -1.433666  3 H  s                  4      1.364420  1 O  s          
    11      1.205564  1 O  px                52     -0.814741  3 H  py         
    37     -0.716797  2 H  px                12     -0.344516  1 O  py         
    47     -0.285497  3 H  s                 38     -0.278964  2 H  py         
    51      0.245988  3 H  px                33      0.227055  2 H  s          

 Vector   15  Occ=0.000000D+00  E= 8.570831D-01
              MO Center=  3.3D-01,  5.6D-01, -1.0D-12, r^2= 2.9D+00
   Bfn.  Coefficient  Atom+Function         Bfn.  Coefficient  Atom+Function  
  ----- ------------  ---------------      ----- ------------  ---------------
    37      0.652744  2 H  px                52     -0.643786  3 H  py         
    11     -0.339003  1 O  px                 9      0.318149  1 O  py         
     4      0.311756  1 O  s                 47     -0.288292  3 H  s          
    38     -0.266705  2 H  py                 8      0.261267  1 O  px         
     2     -0.238348  1 O  s                 46      0.207730  3 H  s          


 center of mass
 --------------
 x =  -0.07599894 y =  -0.15979536 z =   0.00000000

 moments of inertia (a.u.)
 ------------------
          18.115773445257           1.481046345945           0.000000000000
           1.481046345945           2.833002082974           0.000000000000
           0.000000000000           0.000000000000          20.948775528231

  Mulliken analysis of the total density
  --------------------------------------

    Atom       Charge   Shell Charges
 -----------   ------   -------------------------------------------------------
    1 O    8     8.28   1.95  1.06  0.25  0.64  1.19  1.95  1.22  0.00  0.01  0.00
    2 H    1     0.96   0.15  0.44  0.36 -0.00  0.00  0.00
    3 H    1     0.76   0.25  0.39  0.03  0.02  0.06  0.01

       Multipole analysis of the density wrt the origin
       ------------------------------------------------

     L   x y z        total         open         nuclear
     -   - - -        -----         ----         -------
     0   0 0 0     -0.000000      0.000000     10.000000

     1   1 0 0      0.582823      0.000000     -0.000000
     1   0 1 0     -0.001767      0.000000     -0.000000
     1   0 0 1      0.000000      0.000000      0.000000

     2   2 0 0     -4.499578      0.000000      2.679864
     2   1 1 0     -0.697921      0.000000     -1.745287
     2   1 0 1     -0.000000      0.000000      0.000000
     2   0 2 0     -3.390489      0.000000     17.395348
     2   0 1 1     -0.000000      0.000000      0.000000
     2   0 0 2     -5.977631      0.000000      0.000000


 Parallel integral file used      15 records with       0 large values

 ------------------------------------
     Number of active orbitals      8
     Number of active alpha electrons      5
     Number of active beta electrons       5
 ------------------------------------
                   NWChem Extensible Many-Electron Theory Module
                   ---------------------------------------------

              ======================================================
                   This portion of the program was automatically
                  generated by a Tensor Contraction Engine (TCE).
                  The development of this portion of the program
                 and TCE was supported by US Department of Energy,
                Office of Science, Office of Basic Energy Science.
                      TCE is a product of Battelle and PNNL.
              Please cite: S.Hirata, J.Phys.Chem.A 107, 9887 (2003).
              ======================================================

                                        H2O


            General Information
            -------------------
      Number of processors :     1
         Wavefunction type : Restricted Hartree-Fock
          No. of electrons :    10
           Alpha electrons :     5
            Beta electrons :     5
           No. of orbitals :   116
            Alpha orbitals :    58
             Beta orbitals :    58
        Alpha frozen cores :     0
         Beta frozen cores :     0
     Alpha frozen virtuals :    50
      Beta frozen virtuals :    50
         Spin multiplicity : singlet 
    Number of AO functions :    58
       Number of AO shells :    22
        Use of symmetry is : off
      Symmetry adaption is : off
         Schwarz screening : 0.10D-09

          Correlation Information
          -----------------------
          Calculation type : Coupled-cluster singles & doubles                           
   Perturbative correction : none                                                        
            Max iterations :      300
        Residual threshold : 0.10D-06
     T(0) DIIS level shift : 0.00D+00
     L(0) DIIS level shift : 0.00D+00
     T(1) DIIS level shift : 0.00D+00
     L(1) DIIS level shift : 0.00D+00
     T(R) DIIS level shift : 0.00D+00
     T(I) DIIS level shift : 0.00D+00
   CC-T/L Amplitude update :  5-th order DIIS
                I/O scheme : Global Array Library
        L-threshold :  0.10D-06
        EOM-threshold :  0.10D-06
 no EOMCCSD initial starts read in
 TCE RESTART OPTIONS
 READ_INT:   F
 WRITE_INT:  F
 READ_TA:    F
 WRITE_TA:   F
 READ_XA:    F
 WRITE_XA:   F
 READ_IN3:   F
 WRITE_IN3:  F
 SLICE:      F
 D4D5:       F
 quantumc:   T
 qrotation:  F
 pwtce:      F
 qducc:      F
 nacto:                         0
 nrotv:                         0
 nrot:                          0

            Memory Information
            ------------------
          Available GA space size is    1610609372 doubles
          Available MA space size is    1610609772 doubles

 Maximum block size supplied by input
 Maximum block size         1 doubles

 tile_dim =      1

 Block   Spin    Irrep     Size     Offset   Alpha
 -------------------------------------------------
   1    alpha     a      1 doubles       0       1
   2    alpha     a      1 doubles       1       2
   3    alpha     a      1 doubles       2       3
   4    alpha     a      1 doubles       3       4
   5    alpha     a      1 doubles       4       5
   6    beta      a      1 doubles       5       1
   7    beta      a      1 doubles       6       2
   8    beta      a      1 doubles       7       3
   9    beta      a      1 doubles       8       4
  10    beta      a      1 doubles       9       5
  11    alpha     a      1 doubles      10      11
  12    alpha     a      1 doubles      11      12
  13    alpha     a      1 doubles      12      13
  14    beta      a      1 doubles      13      11
  15    beta      a      1 doubles      14      12
  16    beta      a      1 doubles      15      13

 Global array virtual files algorithm will be used

 Parallel file system coherency ......... OK

 Integral file          = ./H2O.aoints.0
 Record size in doubles =  65536        No. of integs per rec  =  43688
 Max. records in memory =     49        Max. records in file   = 250689
 No. of bits per label  =      8        No. of bits per value  =     64


 #quartets = 3.202D+04 #integrals = 6.498D+05 #direct =  0.0% #cached =100.0%


 Fock matrix recomputed
 1-e file size   =               64
 1-e file name   = ./H2O.f1
 Cpu & wall time / sec            0.1            0.1
 4-electron integrals stored in orbital form

 v2    file size   =              666
 4-index algorithm nr.  13 is used
 imaxsize =       30
 imaxsize ichop =        0
 begin_one_electron_integrals
    1    1       -32.6805911453
    2    1        -0.9128186296
    4    1         0.1359592972
    5    1        -0.0291043899
    6    1        -0.0439748825
    7    1        -0.2104148759
    1    2        -0.9128186296
    2    2        -7.6482941677
    4    2        -0.2625430519
    5    2         0.1052934088
    6    2         0.1709164319
    7    2         0.1246816299
    3    3        -6.8608626676
    8    3         2.1181500883
    1    4         0.1359592972
    2    4        -0.2625430519
    4    4        -6.6344161116
    5    4        -0.0495983708
    6    4        -0.0332324631
    7    4         1.9204315115
    1    5        -0.0291043899
    2    5         0.1052934088
    4    5        -0.0495983708
    5    5        -4.8320532048
    6    5         2.2724582613
    7    5         0.0152499668
    1    6        -0.0439748825
    2    6         0.1709164319
    4    6        -0.0332324631
    5    6         2.2724582613
    6    6        -4.8309478658
    7    6         0.0154954188
    1    7        -0.2104148759
    2    7         0.1246816299
    4    7         1.9204315115
    5    7         0.0152499668
    6    7         0.0154954188
    7    7        -5.9020785985
    3    8         2.1181500883
    8    8        -5.2307547747
 end_one_electron_integrals
 begin_two_electron_integrals
    1    1    1    1        4.8247268789
    2    1    1    1       -0.2395735251
    2    1    2    1        0.0315674954
    3    1    3    1        0.0285129239
    4    1    1    1       -0.0894639422
    4    1    2    1        0.0027125342
    4    1    4    1        0.0213099208
    4    1    2    2       -0.0140860702
    4    1    3    3       -0.0024687918
    5    1    1    1        0.0171858044
    5    1    2    1       -0.0018858134
    5    1    4    1        0.0001685206
    5    1    5    1        0.0142524150
    5    1    2    2        0.0006139019
    5    1    4    2        0.0004972597
    5    1    3    3        0.0013808547
    5    1    4    4        0.0013966768
    6    1    1    1        0.0286363706
    6    1    2    1       -0.0024426014
    6    1    4    1       -0.0003526609
    6    1    5    1       -0.0155119110
    6    1    6    1        0.0176197399
    6    1    2    2        0.0020795220
    6    1    4    2        0.0004580701
    6    1    5    2       -0.0147132985
    6    1    3    3        0.0017719630
    6    1    4    4        0.0017730633
    6    1    5    4       -0.0028291830
    6    1    5    5        0.0006423063
    7    1    1    1        0.1710360821
    7    1    2    1       -0.0081281452
    7    1    4    1       -0.0330146708
    7    1    5    1        0.0001686815
    7    1    6    1        0.0006519641
    7    1    7    1        0.0518232877
    7    1    2    2        0.0223934129
    7    1    4    2       -0.0260048639
    7    1    5    2       -0.0010683492
    7    1    6    2       -0.0015242982
    7    1    3    3        0.0037470494
    7    1    4    4       -0.0146201922
    7    1    5    4        0.0005846147
    7    1    6    4        0.0009767752
    7    1    5    5        0.0025270182
    7    1    6    5       -0.0015468648
    7    1    6    6        0.0027302413
    8    1    3    1       -0.0397894381
    8    1    8    1        0.0559512823
    8    1    3    2       -0.0386772184
    8    1    4    3       -0.0075272485
    8    1    5    3        0.0009235962
    8    1    6    3        0.0018938969
    8    1    7    3        0.0104408147
    2    2    1    1        1.0830751231
    2    2    2    1        0.0079456202
    2    2    2    2        0.8276508514
    3    2    3    1        0.0257709119
    3    2    3    2        0.1444421804
    4    2    1    1       -0.0054739989
    4    2    2    1       -0.0040722757
    4    2    4    1        0.0165264066
    4    2    2    2       -0.0570224258
    4    2    4    2        0.0909919894
    4    2    3    3        0.0107381053
    5    2    1    1       -0.0300446875
    5    2    2    1       -0.0004755218
    5    2    4    1        0.0008307270
    5    2    5    1        0.0128019192
    5    2    2    2       -0.0207061830
    5    2    4    2        0.0022081896
    5    2    5    2        0.0776238953
    5    2    3    3       -0.0151602953
    5    2    4    4       -0.0123958569
    6    2    1    1       -0.0331462137
    6    2    2    1       -0.0001140874
    6    2    4    1        0.0008338380
    6    2    5    1       -0.0136815440
    6    2    6    1        0.0153578153
    6    2    2    2       -0.0180714474
    6    2    4    2        0.0034513407
    6    2    5    2       -0.0743856337
    6    2    6    2        0.0756799139
    6    2    3    3       -0.0175729074
    6    2    4    4       -0.0119358173
    6    2    5    4       -0.0113601491
    6    2    5    5       -0.0143817833
    7    2    1    1       -0.0266474399
    7    2    2    1        0.0047627055
    7    2    4    1       -0.0161083548
    7    2    5    1       -0.0003305870
    7    2    6    1       -0.0008009982
    7    2    7    1        0.0238834409
    7    2    2    2        0.0287168619
    7    2    4    2       -0.0609475886
    7    2    5    2       -0.0002489865
    7    2    6    2       -0.0035275843
    7    2    7    2        0.0532073475
    7    2    3    3       -0.0194445718
    7    2    4    4       -0.0359852965
    7    2    5    4        0.0012467175
    7    2    6    4        0.0023320637
    7    2    5    5       -0.0095906182
    7    2    6    5        0.0126251395
    7    2    6    6       -0.0111790712
    8    2    3    1       -0.0207265788
    8    2    8    1        0.0273472806
    8    2    3    2       -0.0539872103
    8    2    8    2        0.0448902650
    8    2    4    3       -0.0030645097
    8    2    5    3        0.0017192376
    8    2    6    3        0.0035425045
    8    2    7    3        0.0115239287
    3    3    1    1        1.0499744081
    3    3    2    1        0.0058578752
    3    3    2    2        0.7419868755
    3    3    3    3        0.7614234473
    4    3    3    1        0.0052223906
    4    3    3    2        0.0231569637
    4    3    4    3        0.0365724571
    5    3    3    1       -0.0006860588
    5    3    3    2       -0.0031840496
    5    3    4    3        0.0000677897
    5    3    5    3        0.0194624068
    6    3    3    1       -0.0013318822
    6    3    3    2       -0.0058403029
    6    3    4    3       -0.0006092668
    6    3    5    3       -0.0189846104
    6    3    6    3        0.0197160746
    7    3    3    1       -0.0078848766
    7    3    3    2       -0.0222258167
    7    3    4    3       -0.0206557269
    7    3    5    3        0.0005050656
    7    3    6    3        0.0008231513
    7    3    7    3        0.0252443818
    8    3    1    1       -0.5370519785
    8    3    2    1       -0.0030602288
    8    3    4    1        0.0042932112
    8    3    5    1       -0.0011355941
    8    3    6    1       -0.0012498390
    8    3    7    1       -0.0075065971
    8    3    2    2       -0.2191804651
    8    3    4    2        0.0103048605
    8    3    5    2        0.0070564802
    8    3    6    2        0.0100040723
    8    3    7    2        0.0061551014
    8    3    3    3       -0.2125218864
    8    3    8    3        0.1659857839
    8    3    4    4       -0.1399930580
    8    3    5    4       -0.0026859692
    8    3    6    4       -0.0011510116
    8    3    7    4        0.1250817661
    8    3    5    5       -0.1012946437
    8    3    6    5        0.0974505843
    8    3    7    5        0.0014261543
    8    3    6    6       -0.1117245640
    8    3    7    6        0.0017246997
    8    3    7    7       -0.1648322900
    4    4    1    1        0.9084698390
    4    4    2    1        0.0027557083
    4    4    4    1        0.0085739999
    4    4    2    2        0.6365063254
    4    4    4    2        0.0804661151
    4    4    3    3        0.6382415965
    4    4    4    4        0.7743492095
    5    4    1    1        0.0108011262
    5    4    2    1        0.0001775555
    5    4    4    1       -0.0003740532
    5    4    5    1        0.0025682068
    5    4    2    2        0.0066581916
    5    4    4    2       -0.0015865689
    5    4    5    2        0.0101480038
    5    4    3    3        0.0055350276
    5    4    4    4        0.0049806371
    5    4    5    4        0.0184554122
    6    4    1    1        0.0065472618
    6    4    2    1        0.0003253218
    6    4    4    1       -0.0007201030
    6    4    5    1       -0.0027905481
    6    4    6    1        0.0031361921
    6    4    2    2        0.0066887196
    6    4    4    2       -0.0017171333
    6    4    5    2       -0.0128513336
    6    4    6    2        0.0122731990
    6    4    3    3        0.0039429524
    6    4    4    4        0.0052410467
    6    4    5    4       -0.0181985404
    6    4    6    4        0.0192106156
    6    4    5    5       -0.0029568381
    7    4    1    1       -0.4729692531
    7    4    2    1       -0.0008521080
    7    4    4    1       -0.0038217854
    7    4    5    1       -0.0011159769
    7    4    6    1       -0.0012471791
    7    4    7    1        0.0024770284
    7    4    2    2       -0.2125467283
    7    4    4    2        0.0148908209
    7    4    5    2        0.0058067047
    7    4    6    2        0.0090444341
    7    4    7    2        0.0163014449
    7    4    3    3       -0.1834417919
    7    4    4    4       -0.0957031160
    7    4    5    4       -0.0022689078
    7    4    6    4        0.0012606762
    7    4    7    4        0.2132712356
    7    4    5    5       -0.1038880348
    7    4    6    5        0.0898621081
    7    4    6    6       -0.1125909848
    8    4    3    1       -0.0022601656
    8    4    8    1        0.0020957849
    8    4    3    2        0.0069101306
    8    4    8    2        0.0029998329
    8    4    4    3       -0.0005406006
    8    4    5    3       -0.0001975381
    8    4    6    3        0.0000997639
    8    4    7    3        0.0152858132
    8    4    8    4        0.0193896017
    5    5    1    1        0.6541683070
    5    5    2    1        0.0029875339
    5    5    4    1       -0.0015217359
    5    5    5    1        0.0002926733
    5    5    2    2        0.5017511885
    5    5    4    2        0.0000871542
    5    5    5    2        0.0077787128
    5    5    3    3        0.4671114759
    5    5    4    4        0.4338923740
    5    5    5    4        0.0021106973
    5    5    5    5        0.4679985723
    6    5    1    1       -0.4344377883
    6    5    2    1       -0.0031754380
    6    5    4    1        0.0011657973
    6    5    5    1       -0.0009322457
    6    5    6    1       -0.0013355295
    6    5    2    2       -0.2644057763
    6    5    4    2       -0.0093693123
    6    5    5    2        0.0217607082
    6    5    6    2        0.0024920450
    6    5    3    3       -0.2413094718
    6    5    4    4       -0.2207900313
    6    5    5    4       -0.0045316889
    6    5    6    4       -0.0061881896
    6    5    5    5       -0.0526443074
    6    5    6    5        0.2409018228
    7    5    1    1       -0.0040989641
    7    5    2    1       -0.0000963640
    7    5    4    1        0.0003243279
    7    5    5    1       -0.0042884481
    7    5    6    1        0.0047979459
    7    5    7    1       -0.0005599093
    7    5    2    2       -0.0021408842
    7    5    4    2        0.0020506966
    7    5    5    2       -0.0143191876
    7    5    6    2        0.0148664308
    7    5    7    2       -0.0016109680
    7    5    3    3       -0.0009846312
    7    5    4    4        0.0001244119
    7    5    5    4       -0.0111714287
    7    5    6    4        0.0121351607
    7    5    7    4        0.0022714234
    7    5    5    5       -0.0025296509
    7    5    6    5       -0.0013663798
    7    5    7    5        0.0138511825
    7    5    6    6       -0.0035041907
    8    5    3    1        0.0005535299
    8    5    8    1       -0.0008343678
    8    5    3    2        0.0033858151
    8    5    8    2       -0.0008704137
    8    5    4    3        0.0002187963
    8    5    5    3       -0.0052768521
    8    5    6    3        0.0065046377
    8    5    7    3       -0.0000984888
    8    5    8    4        0.0005458457
    8    5    8    5        0.0093028501
    6    6    1    1        0.6872538457
    6    6    2    1        0.0032658578
    6    6    4    1       -0.0016403607
    6    6    5    1        0.0020111542
    6    6    6    1       -0.0010452646
    6    6    2    2        0.5052317805
    6    6    4    2        0.0016186430
    6    6    5    2        0.0116348040
    6    6    6    2       -0.0195585890
    6    6    3    3        0.4708976517
    6    6    4    4        0.4363364561
    6    6    5    4        0.0016087706
    6    6    6    4       -0.0029203830
    6    6    5    5        0.4801782863
    6    6    6    5       -0.0420296509
    6    6    6    6        0.5003403435
    7    6    1    1       -0.0049618021
    7    6    2    1       -0.0004420260
    7    6    4    1        0.0009926493
    7    6    5    1        0.0047166808
    7    6    6    1       -0.0051989688
    7    6    7    1       -0.0015174735
    7    6    2    2       -0.0064141644
    7    6    4    2        0.0050201039
    7    6    5    2        0.0155215170
    7    6    6    2       -0.0156628897
    7    6    7    2       -0.0029667433
    7    6    3    3       -0.0014386758
    7    6    4    4        0.0037180951
    7    6    5    4        0.0125209046
    7    6    6    4       -0.0135405045
    7    6    7    4        0.0040504423
    7    6    5    5       -0.0015678493
    7    6    6    5        0.0000784180
    7    6    7    5       -0.0144764560
    7    6    6    6       -0.0008725303
    7    6    7    6        0.0161125459
    8    6    3    1        0.0013475296
    8    6    8    1       -0.0020189560
    8    6    3    2        0.0063448701
    8    6    8    2       -0.0024223848
    8    6    4    3        0.0009933977
    8    6    5    3        0.0074319208
    8    6    6    3       -0.0085157423
    8    6    7    3       -0.0006400669
    8    6    8    4        0.0005591605
    8    6    8    5       -0.0082050009
    8    6    8    6        0.0093378499
    7    7    1    1        1.0487716813
    7    7    2    1        0.0001445633
    7    7    4    1        0.0083769418
    7    7    5    1        0.0019414270
    7    7    6    1        0.0023562263
    7    7    7    1       -0.0131905638
    7    7    2    2        0.6304383397
    7    7    4    2        0.0707576849
    7    7    5    2       -0.0127307397
    7    7    6    2       -0.0130151177
    7    7    7    2       -0.0349706135
    7    7    3    3        0.6354002489
    7    7    4    4        0.7570772228
    7    7    5    4        0.0053819780
    7    7    6    4        0.0059905310
    7    7    7    4       -0.0914951308
    7    7    5    5        0.4287298554
    7    7    6    5       -0.2244182256
    7    7    7    5        0.0001920148
    7    7    6    6        0.4341424511
    7    7    7    6        0.0042293564
    7    7    7    7        0.7973204152
    8    7    3    1        0.0072732263
    8    7    8    1       -0.0101627907
    8    7    3    2        0.0243601854
    8    7    8    2       -0.0062809811
    8    7    4    3        0.0275513570
    8    7    5    3       -0.0000522569
    8    7    6    3       -0.0006584518
    8    7    7    3       -0.0166838410
    8    7    8    4       -0.0011628383
    8    7    8    5        0.0005070262
    8    7    8    6        0.0012623721
    8    7    8    7        0.0299206081
    8    8    1    1        1.0420801267
    8    8    2    1        0.0018181431
    8    8    4    1       -0.0049001519
    8    8    5    1        0.0017298000
    8    8    6    1        0.0018786777
    8    8    7    1        0.0075852233
    8    8    2    2        0.6360174735
    8    8    4    2        0.0112932388
    8    8    5    2       -0.0119056805
    8    8    6    2       -0.0144925609
    8    8    7    2       -0.0134031790
    8    8    3    3        0.6563895555
    8    8    8    3       -0.1826847640
    8    8    4    4        0.5748132018
    8    8    5    4        0.0048984164
    8    8    6    4        0.0037101333
    8    8    7    4       -0.1441352752
    8    8    5    5        0.4193479893
    8    8    6    5       -0.2022510402
    8    8    7    5       -0.0009240848
    8    8    6    6        0.4227489884
    8    8    7    6       -0.0005636625
    8    8    7    7        0.5901503814
    8    8    8    8        0.6102414488
 end_two_electron_integrals
 enrep_tce =    6.4018547505637633     
  EHF(A)             =       -75.76010303
  EHF(total)         =       -75.76010302
  Shift (HFtot-HFA)  =         0.00000000
 Cpu & wall time / sec            1.0            1.0
 T1-number-of-tasks                   15

 t1 file size   =               15
 t1 file name   = ./H2O.t1
 t1 file handle =       -998
 T2-number-of-boxes                  315

 t2 file size   =              315
 t2 file name   = ./H2O.t2
 t2 file handle =       -996
CCSD iterations
 ---------------------------------------------------------
 Iter          Residuum       Correlation     Cpu    Wall 
 ---------------------------------------------------------
NEW TASK SCHEDULING
CCSD_T1_NTS --- OK
CCSD_T2_NTS --- OK
    1   0.7309208709291  -0.3442778028543     1.7     2.6
    2   1.2627710093610   0.0748054994408     1.7     2.6
    3   2.1329748020785  -0.6748763096356     1.9     2.6
    4   3.6502711998858   0.6901150042916     1.9     2.6
    5   2.8330175096383  -0.5661995521111     1.6     2.6
 MICROCYCLE DIIS UPDATE:                    5                    5
    6   0.0306602501976  -0.2108465380461     1.8     2.7
    7   0.0383667775902  -0.2077775813951     1.8     2.6
    8   0.0700992280194  -0.2259205697272     1.9     2.6
    9   0.1408018532070  -0.1836511648012     1.7     2.6
   10   0.3071846858316  -0.2364923963504     1.8     2.6
 MICROCYCLE DIIS UPDATE:                   10                    5
   11   0.0031031282320  -0.2152208375794     1.8     2.6
   12   0.0026426065853  -0.2152492413933     1.7     2.6
   13   0.0044252353975  -0.2148228065694     1.7     2.6
   14   0.0098978866983  -0.2155164690358     1.8     2.6
   15   0.0240383868393  -0.2143666951805     1.8     2.6
 MICROCYCLE DIIS UPDATE:                   15                    5
   16   0.0004305483837  -0.2150842385069     1.7     2.6
   17   0.0004132267554  -0.2150859622855     1.7     2.6
   18   0.0006513439225  -0.2151352604917     1.8     2.6
   19   0.0013201872557  -0.2150472849172     1.7     2.6
   20   0.0029807014985  -0.2151969183029     1.7     2.6
 MICROCYCLE DIIS UPDATE:                   20                    5
   21   0.0000776848412  -0.2151082058562     1.8     2.6
   22   0.0000673531848  -0.2151089522477     1.9     2.6
   23   0.0001235217993  -0.2151021111314     1.9     2.6
   24   0.0002887993786  -0.2151121354685     1.8     2.6
   25   0.0007118007793  -0.2150977571175     1.7     2.6
 MICROCYCLE DIIS UPDATE:                   25                    5
   26   0.0000110482582  -0.2151058080008     1.8     2.6
   27   0.0000091748425  -0.2151065718794     1.7     2.6
   28   0.0000130980978  -0.2151064998111     1.9     2.6
   29   0.0000265827604  -0.2151066919935     1.8     2.6
   30   0.0000615228459  -0.2151061419537     1.8     2.6
 MICROCYCLE DIIS UPDATE:                   30                    5
   31   0.0000019574151  -0.2151066437342     1.9     2.6
   32   0.0000019509589  -0.2151066527889     1.7     2.6
   33   0.0000038311834  -0.2151066188545     1.7     2.6
   34   0.0000091761959  -0.2151065921213     1.8     2.6
   35   0.0000227932054  -0.2151067688979     1.8     2.6
 MICROCYCLE DIIS UPDATE:                   35                    5
   36   0.0000002661997  -0.2151066166392     1.7     2.6
   37   0.0000001936785  -0.2151066417178     1.7     2.6
   38   0.0000002320863  -0.2151066236082     1.9     2.6
   39   0.0000004514830  -0.2151066589138     1.8     2.6
   40   0.0000010580221  -0.2151065914493     1.8     2.6
 MICROCYCLE DIIS UPDATE:                   40                    5
   41   0.0000000383650  -0.2151066371332     1.7     2.6
 -----------------------------------------------------------------
 Iterations converged
 CCSD correlation energy / hartree =        -0.215106637133151
 CCSD total energy / hartree       =       -75.975209662087792

 Singles contributions

 Doubles contributions
     6a   (alpha)     6a   (beta ) ---     5a   (alpha)     5a   (beta )       -0.6315499182
     6a   (alpha)     7a   (beta ) ---     4a   (alpha)     5a   (beta )       -0.0214488307
     6a   (alpha)     7a   (beta ) ---     5a   (alpha)     4a   (beta )       -0.0240067535
     6a   (alpha)     8a   (beta ) ---     5a   (alpha)     3a   (beta )       -0.0211758726
     7a   (alpha)     8a   (alpha) ---     3a   (alpha)     4a   (alpha)        0.0327730563
     7a   (alpha)     6a   (beta ) ---     4a   (alpha)     5a   (beta )       -0.0240067535
     7a   (alpha)     6a   (beta ) ---     5a   (alpha)     4a   (beta )       -0.0214488307
     7a   (alpha)     7a   (beta ) ---     4a   (alpha)     4a   (beta )       -0.0928436447
     7a   (alpha)     8a   (beta ) ---     4a   (alpha)     3a   (beta )       -0.0422222428
     8a   (alpha)     6a   (beta ) ---     3a   (alpha)     5a   (beta )       -0.0211758726
     8a   (alpha)     7a   (beta ) ---     3a   (alpha)     4a   (beta )       -0.0422222428
     8a   (alpha)     8a   (beta ) ---     3a   (alpha)     3a   (beta )       -0.0588963727
 Ground state specification:
 exp(T)|Ref>~(1+T)|Ref>
 ------- a(p)+/a(q) strings ----------

 singles norm

 doubles norm

 Reference string
  0.84549998415514060      :(1a)+ (2a)+ (3a)+ (4a)+ (5a)+ (1b)+ (2b)+ (3b)+ (4b)+ (5b)+ |0>

 Singles strings

 Doubles strings
 -0.53397544587149037      :(6a)+ (6b)+ (5b)  (5a)  (1a)+ (2a)+ (3a)+ (4a)+ (5a)+ (1b)+ (2b)+ (3b)+ (4b)+ (5b)+ |0>
 -------------------------------------

 Parallel integral file used      15 records with       0 large values


 Task  times  cpu:       74.4s     wall:      108.5s


                                NWChem Input Module
                                -------------------


 Summary of allocated global arrays
-----------------------------------
  No active global arrays


MA_summarize_allocated_blocks: starting scan ...
MA_summarize_allocated_blocks: scan completed: 0 heap blocks, 0 stack blocks
MA usage statistics:

	allocation statistics:
					      heap	     stack
					      ----	     -----
	current number of blocks	         0	         0
	maximum number of blocks	        18	        42
	current total bytes		         0	         0
	maximum total bytes		  25775960	  38234456
	maximum total K-bytes		     25776	     38235
	maximum total M-bytes		        26	        39


                                     CITATION
                                     --------
                Please cite the following reference when publishing
                           results obtained with NWChem:

          E. Apra, E. J. Bylaska, W. A. de Jong, N. Govind, K. Kowalski,
       T. P. Straatsma, M. Valiev, H. J. J. van Dam, Y. Alexeev, J. Anchell,
       V. Anisimov, F. W. Aquino, R. Atta-Fynn, J. Autschbach, N. P. Bauman,
     J. C. Becca, D. E. Bernholdt, K. Bhaskaran-Nair, S. Bogatko, P. Borowski,
         J. Boschen, J. Brabec, A. Bruner, E. Cauet, Y. Chen, G. N. Chuev,
      C. J. Cramer, J. Daily, M. J. O. Deegan, T. H. Dunning Jr., M. Dupuis,
   K. G. Dyall, G. I. Fann, S. A. Fischer, A. Fonari, H. Fruchtl, L. Gagliardi,
      J. Garza, N. Gawande, S. Ghosh, K. Glaesemann, A. W. Gotz, J. Hammond,
       V. Helms, E. D. Hermes, K. Hirao, S. Hirata, M. Jacquelin, L. Jensen,
   B. G. Johnson, H. Jonsson, R. A. Kendall, M. Klemm, R. Kobayashi, V. Konkov,
      S. Krishnamoorthy, M. Krishnan, Z. Lin, R. D. Lins, R. J. Littlefield,
      A. J. Logsdail, K. Lopata, W. Ma, A. V. Marenich, J. Martin del Campo,
   D. Mejia-Rodriguez, J. E. Moore, J. M. Mullin, T. Nakajima, D. R. Nascimento,
    J. A. Nichols, P. J. Nichols, J. Nieplocha, A. Otero-de-la-Roza, B. Palmer,
    A. Panyala, T. Pirojsirikul, B. Peng, R. Peverati, J. Pittner, L. Pollack,
   R. M. Richard, P. Sadayappan, G. C. Schatz, W. A. Shelton, D. W. Silverstein,
   D. M. A. Smith, T. A. Soares, D. Song, M. Swart, H. L. Taylor, G. S. Thomas,
            V. Tipparaju, D. G. Truhlar, K. Tsemekhman, T. Van Voorhis,
      A. Vazquez-Mayagoitia, P. Verma, O. Villa, A. Vishnu, K. D. Vogiatzis,
        D. Wang, J. H. Weare, M. J. Williamson, T. L. Windus, K. Wolinski,
        A. T. Wong, Q. Wu, C. Yang, Q. Yu, M. Zacharias, Z. Zhang, Y. Zhao,
                                and R. J. Harrison
                        "NWChem: Past, present, and future
                         J. Chem. Phys. 152, 184102 (2020)
                               doi:10.1063/5.0004997

                                      AUTHORS
                                      -------
  E. Apra, E. J. Bylaska, N. Govind, K. Kowalski, M. Valiev, D. Mejia-Rodriguez,
       A. Kunitsa, N. P. Bauman, A. Panyala, W. A. de Jong, T. P. Straatsma,
        H. J. J. van Dam, D. Wang, T. L. Windus, J. Hammond, J. Autschbach,
    K. Bhaskaran-Nair, J. Brabec, K. Lopata, S. A. Fischer, S. Krishnamoorthy,
     M. Jacquelin, W. Ma, M. Klemm, O. Villa, Y. Chen, V. Anisimov, F. Aquino,
    S. Hirata, M. T. Hackler, Eric Hermes, L. Jensen, J. E. Moore, J. C. Becca,
      V. Konjkov, T. Risthaus, M. Malagoli, A. Marenich, A. Otero-de-la-Roza,
        J. Mullin, P. Nichols, R. Peverati, J. Pittner, Y. Zhao, P.-D. Fan,
        A. Fonari, M. J. Williamson, R. J. Harrison, J. R. Rehr, M. Dupuis,
     D. Silverstein, D. M. A. Smith, J. Nieplocha, V. Tipparaju, M. Krishnan,
     B. E. Van Kuiken, A. Vazquez-Mayagoitia, M. Swart, Q. Wu, T. Van Voorhis,
     A. A. Auer, M. Nooijen, L. D. Crosby, E. Brown, G. Cisneros, G. I. Fann,
   H. Fruchtl, J. Garza, K. Hirao, R. A. Kendall, J. A. Nichols, K. Tsemekhman,
    K. Wolinski, J. Anchell, D. E. Bernholdt, P. Borowski, T. Clark, D. Clerc,
   H. Dachsel, M. J. O. Deegan, K. Dyall, D. Elwood, E. Glendening, M. Gutowski,
   A. C. Hess, J. Jaffe, B. G. Johnson, J. Ju, R. Kobayashi, R. Kutteh, Z. Lin,
   R. Littlefield, X. Long, B. Meng, T. Nakajima, S. Niu, L. Pollack, M. Rosing,
   K. Glaesemann, G. Sandrone, M. Stave, H. Taylor, G. Thomas, J. H. van Lenthe,
                               A. T. Wong, Z. Zhang.

 Total times  cpu:       78.0s     wall:      115.4s
