 argument  1 = input.nw
  NWChem w/ OpenMP: maximum threads =    1



============================== echo of input deck ==============================
 echo
 start H2O
 title "H2O"

 memory total 24 gb

 geometry units bohr
 symmetry c1
        O  0.00000000  0.00000000  0.00000000
        H  0.00000000  4.461149  0.00000000
        H  1.72558000 -0.64860000  0.00000000
 end

 basis spherical
   * library cc-pVTZ
 end

 mcscf
   active  8
   actelec 10
   multiplicity 1
   maxiter 40
   vectors input h2o.mos
   vectors output h2o.mos
 end

 task mcscf

 scf
   vectors input h2o.mos
   vectors output h2o-trash.mos
   noscf
 end

 tce
   2eorb
   2emet 13
   ccsd
   maxiter 300
 end

 set tce:print_integrals T
 set tce:qorb 8
 set tce:qela 5
 set tce:qelb 5

# set tce:qducc T
# set tce:nactv 3
# set tce:nonhf T
# set tce:ducc_model 6

 set tce:printtol 0.02

 task tce
================================================================================


                                         
                                         


             Northwest Computational Chemistry Package (NWChem) 7.0.1
             --------------------------------------------------------


                    Environmental Molecular Sciences Laboratory
                       Pacific Northwest National Laboratory
                                Richland, WA 99352

                              Copyright (c) 1994-2020
                       Pacific Northwest National Laboratory
                            Battelle Memorial Institute

             NWChem is an open-source computational chemistry package
                        distributed under the terms of the
                      Educational Community License (ECL) 2.0
             A copy of the license is included with this distribution
                              in the LICENSE.TXT file

                                  ACKNOWLEDGMENT
                                  --------------

            This software and its documentation were developed at the
            EMSL at Pacific Northwest National Laboratory, a multiprogram
            national laboratory, operated for the U.S. Department of Energy
            by Battelle under Contract Number DE-AC05-76RL01830. Support
            for this work was provided by the Department of Energy Office
            of Biological and Environmental Research, Office of Basic
            Energy Sciences, and the Office of Advanced Scientific Computing.


           Job information
           ---------------

    hostname        = WE46210
    program         = /home/baum612/code/nwchem/bin/LINUX64/nwchem
    date            = Thu May  2 13:01:43 2024

    compiled        = Tue_Apr_30_12:43:26_2024
    source          = /home/baum612/code/nwchem
    nwchem branch   = 7.0.0
    nwchem revision = nwchem_on_git-4191-g39d87d64de
    ga revision     = 5.8.1
    use scalapack   = F
    input           = input.nw
    prefix          = H2O.
    data base       = ./H2O.db
    status          = startup
    nproc           =        1
    time left       =     -1s



           Memory information
           ------------------

    heap     =  805306362 doubles =   6144.0 Mbytes
    stack    =  805306367 doubles =   6144.0 Mbytes
    global   = 1610612736 doubles =  12288.0 Mbytes (distinct from heap & stack)
    total    = 3221225465 doubles =  24576.0 Mbytes
    verify   = yes
    hardfail = no 


           Directory information
           ---------------------

  0 permanent = .
  0 scratch   = .




                                NWChem Input Module
                                -------------------


                                        H2O
                                        ---
 Turning off AUTOSYM since
 SYMMETRY directive was detected!


          ------
          auto-z
          ------
  autoz: The atoms group into disjoint clusters
 cluster   1:    1    3
 cluster   2:    2
 Connecting clusters   1   2 via atoms    1    2 r = 2.36
  autoz: regenerating connections with new bonds
  no constraints, skipping    0.0000000000000000     
  no constraints, skipping    0.0000000000000000     


                             Geometry "geometry" -> ""
                             -------------------------

 Output coordinates in a.u. (scale by  1.000000000 to convert to a.u.)

  No.       Tag          Charge          X              Y              Z
 ---- ---------------- ---------- -------------- -------------- --------------
    1 O                    8.0000    -0.17255800    -0.38125490     0.00000000
    2 H                    1.0000    -0.17255800     4.07989410     0.00000000
    3 H                    1.0000     1.55302200    -1.02985490     0.00000000

      Atomic Mass 
      ----------- 

      O                 15.994910
      H                  1.007825


 Effective nuclear repulsion energy (a.u.)       6.3183658124

            Nuclear Dipole moment (a.u.) 
            ----------------------------
        X                 Y               Z
 ---------------- ---------------- ----------------
    -0.0000000000     0.0000000000     0.0000000000



                                Z-matrix (autoz)
                                -------- 

 Units are Angstrom for bonds and degrees for angles

      Type          Name      I     J     K     L     M      Value
      ----------- --------  ----- ----- ----- ----- ----- ----------
    1 Stretch                  1     2                       2.36074
    2 Stretch                  1     3                       0.97551
    3 Bend                     2     1     3               110.59992


            XYZ format geometry
            -------------------
     3
 geometry
 O                    -0.09131377    -0.20175142     0.00000000
 H                    -0.09131377     2.15898714     0.00000000
 H                     0.82182391    -0.54497578     0.00000000

 ==============================================================================
                                internuclear distances
 ------------------------------------------------------------------------------
       center one      |      center two      | atomic units |       a.u.
 ------------------------------------------------------------------------------
    3 H                |   1 O                |     1.84345  |     1.84345
 ------------------------------------------------------------------------------
                         number of included internuclear distances:          1
 ==============================================================================





 Summary of "ao basis" -> "" (spherical)
 ------------------------------------------------------------------------------
       Tag                 Description            Shells   Functions and Types
 ---------------- ------------------------------  ------  ---------------------
 *                          cc-pVTZ                   on all atoms 


                      Basis "ao basis" -> "ao basis" (spherical)
                      -----
  O (Oxygen)
  ----------
            Exponent  Coefficients 
       -------------- ---------------------------------------------------------
  1 S  1.53300000E+04  0.000508
  1 S  2.29900000E+03  0.003929
  1 S  5.22400000E+02  0.020243
  1 S  1.47300000E+02  0.079181
  1 S  4.75500000E+01  0.230687
  1 S  1.67600000E+01  0.433118
  1 S  6.20700000E+00  0.350260
  1 S  6.88200000E-01 -0.008154

  2 S  1.53300000E+04 -0.000115
  2 S  2.29900000E+03 -0.000895
  2 S  5.22400000E+02 -0.004636
  2 S  1.47300000E+02 -0.018724
  2 S  4.75500000E+01 -0.058463
  2 S  1.67600000E+01 -0.136463
  2 S  6.20700000E+00 -0.175740
  2 S  6.88200000E-01  0.603418

  3 S  1.75200000E+00  1.000000

  4 S  2.38400000E-01  1.000000

  5 P  3.44600000E+01  0.015928
  5 P  7.74900000E+00  0.099740
  5 P  2.28000000E+00  0.310492

  6 P  7.15600000E-01  1.000000

  7 P  2.14000000E-01  1.000000

  8 D  2.31400000E+00  1.000000

  9 D  6.45000000E-01  1.000000

 10 F  1.42800000E+00  1.000000

  H (Hydrogen)
  ------------
            Exponent  Coefficients 
       -------------- ---------------------------------------------------------
  1 S  3.38700000E+01  0.006068
  1 S  5.09500000E+00  0.045308
  1 S  1.15900000E+00  0.202822

  2 S  3.25800000E-01  1.000000

  3 S  1.02700000E-01  1.000000

  4 P  1.40700000E+00  1.000000

  5 P  3.88000000E-01  1.000000

  6 D  1.05700000E+00  1.000000



 Summary of "ao basis" -> "ao basis" (spherical)
 ------------------------------------------------------------------------------
       Tag                 Description            Shells   Functions and Types
 ---------------- ------------------------------  ------  ---------------------
 O                          cc-pVTZ                 10       30   4s3p2d1f
 H                          cc-pVTZ                  6       14   3s2p1d



                            NWChem Direct MCSCF Module
                            --------------------------


                                        H2O


     -----------------------------------
       Basis functions:             58
       Inactive shells:              0
       Active shells:                8
       Active electrons:            10
       Symmetry:                    a       
       Multiplicity:                 1
       Orbital rotations:          400
     -----------------------------------

     -----------------------------------
       E2 extrapolation:             F
       Conjugacy:                    T
       Micro CI relax:               T
       Canonical orbitals:           T
       Maximum iterations:          40
       Converge threshold:    1.00E-04
       Conjugacy resets:            20
       Initial levelshift:        0.10
     -----------------------------------

 Loading old vectors from job with title :

H2O


   input molecular orbitals = ./h2o.mos
  output molecular orbtials = ./h2o.mos

       No. of determinants:          3136


  Starting Orbital Energies
   -20.611354    -1.306798    -0.672075    -0.548876    -0.376992    -0.192747
    -0.026180    -0.012935     0.284663     0.404076     0.624958     0.710926
     0.778460     0.825401     0.850851     0.903618     0.978961     1.250290
     1.348428     1.715361     1.745851     2.029943     2.034420     2.151805
     2.563071     2.753168     3.445230     3.457105     3.457239     3.462852
     3.473462     3.485111     3.510277     3.535039     3.741238     3.874427
     3.906532     3.950931     3.972675     4.016150     4.159943     4.394551
     4.447967     4.722530     5.138106     5.538402     5.543631     5.794818
     5.798725     6.702418     6.729065     6.806545     6.832201     6.890618
     7.029133     7.056271     7.508090    10.801421

  Orbital Symmetry Irreps
a    a    a    a    a    a    a    a    a    a    a    a    a    a    a   
a    a    a    a    a    a    a    a    a    a    a    a    a    a    a   
a    a    a    a    a    a    a    a    a    a    a    a    a    a    a   
a    a    a    a    a    a    a    a    a    a    a    a    a   

 Integral file          = ./H2O.aoints.0
 Record size in doubles =  65536        No. of integs per rec  =  43688
 Max. records in memory =     49        Max. records in file   = 250649
 No. of bits per label  =      8        No. of bits per value  =     64


 #quartets = 3.180D+04 #integrals = 6.101D+05 #direct =  0.0% #cached =100.0%




          %%%%% MacroIteration   1 %%%%%


          Number of sigma calls:       23
                       o<<<<< (aa):             0.00
                       o<<<<< (bb):             0.01
                       o<<<<< (ab):             0.07
                       o<<<<< (total)           0.08
                       o<<<<< (aa) ff           0.00
                       o<<<<< (aa) gop          0.00
                       o<<<<< (aa) dot          0.00
                       o<<<<< (ab) str          0.00
                       o<<<<< (ab) gath         0.00
                       o<<<<< (ab) dotab        0.00
                       o<<<<< (ab) scat         0.00
                       o<<<<< (ab) sync         0.00
                       o<<<<< Density           0.01
                       o<<<<< Density one       0.00
                       o<<<<< Density two       0.00
                       o<<<<< Density ab        0.01
                       o<<<<< Spin adapt        0.31
                       o<<<<< Symm adapt        0.00

                       o<<<<< (ab) max sync:      0.00

           >>>| Valence CI:            -82.292025264064
           >>>| MCSCF energy:          -75.973659451698
           >>>| Gradient norm:          0.162651798D-02
     --- Warning:    2 Hessian diagonals < 0.05 ---

                              ----- Line search ------

        step       energy         lsg     num-lsg   num-lsh   lsrat    time
      ------- ---------------- --------- --------- --------- ------- --------
       0.0000     -75.97365945 -6.62D-07  0.00D+00  0.00D+00 0.0D+00      1.0

          Number of sigma calls:       21
                       o<<<<< (aa):             0.00
                       o<<<<< (bb):             0.00
                       o<<<<< (ab):             0.06
                       o<<<<< (total)           0.07
                       o<<<<< (aa) ff           0.00
                       o<<<<< (aa) gop          0.00
                       o<<<<< (aa) dot          0.00
                       o<<<<< (ab) str          0.00
                       o<<<<< (ab) gath         0.00
                       o<<<<< (ab) dotab        0.00
                       o<<<<< (ab) scat         0.00
                       o<<<<< (ab) sync         0.00
                       o<<<<< Density           0.01
                       o<<<<< Density one       0.00
                       o<<<<< Density two       0.00
                       o<<<<< Density ab        0.01
                       o<<<<< Spin adapt        0.36
                       o<<<<< Symm adapt        0.00

                       o<<<<< (ab) max sync:      0.00
       1.0000     -75.97365983 -9.31D-08 -9.32D-08  5.69D-07 1.4D-01      1.6

          Number of sigma calls:       16
                       o<<<<< (aa):             0.00
                       o<<<<< (bb):             0.00
                       o<<<<< (ab):             0.04
                       o<<<<< (total)           0.05
                       o<<<<< (aa) ff           0.00
                       o<<<<< (aa) gop          0.00
                       o<<<<< (aa) dot          0.00
                       o<<<<< (ab) str          0.00
                       o<<<<< (ab) gath         0.00
                       o<<<<< (ab) dotab        0.00
                       o<<<<< (ab) scat         0.00
                       o<<<<< (ab) sync         0.00
                       o<<<<< Density           0.00
                       o<<<<< Density one       0.00
                       o<<<<< Density two       0.00
                       o<<<<< Density ab        0.00
                       o<<<<< Spin adapt        0.28
                       o<<<<< Symm adapt        0.00

                       o<<<<< (ab) max sync:      0.00
       1.1636     -75.97365984  5.39D-11  5.19D-11  5.70D-07 8.1D-05      2.0
     --- Orbitals canonicalized ---



          %%%%% MacroIteration   2 %%%%%


          Number of sigma calls:       22
                       o<<<<< (aa):             0.00
                       o<<<<< (bb):             0.00
                       o<<<<< (ab):             0.05
                       o<<<<< (total)           0.06
                       o<<<<< (aa) ff           0.00
                       o<<<<< (aa) gop          0.00
                       o<<<<< (aa) dot          0.00
                       o<<<<< (ab) str          0.00
                       o<<<<< (ab) gath         0.00
                       o<<<<< (ab) dotab        0.00
                       o<<<<< (ab) scat         0.00
                       o<<<<< (ab) sync         0.00
                       o<<<<< Density           0.00
                       o<<<<< Density one       0.00
                       o<<<<< Density two       0.00
                       o<<<<< Density ab        0.00
                       o<<<<< Spin adapt        0.29
                       o<<<<< Symm adapt        0.00

                       o<<<<< (ab) max sync:      0.00

           >>>| Valence CI:            -82.292025649567
           >>>| MCSCF energy:          -75.973659837201
           >>>| Gradient norm:          0.212249680D-03
     --- Warning:    4 Hessian diagonals < 0.05 ---
     --- Conjugacy reset ---

                              ----- Line search ------

        step       energy         lsg     num-lsg   num-lsh   lsrat    time
      ------- ---------------- --------- --------- --------- ------- --------
       0.0000     -75.97365984 -1.47D-08  0.00D+00  0.00D+00 0.0D+00      2.5

          Number of sigma calls:       13
                       o<<<<< (aa):             0.00
                       o<<<<< (bb):             0.00
                       o<<<<< (ab):             0.04
                       o<<<<< (total)           0.05
                       o<<<<< (aa) ff           0.00
                       o<<<<< (aa) gop          0.00
                       o<<<<< (aa) dot          0.00
                       o<<<<< (ab) str          0.00
                       o<<<<< (ab) gath         0.00
                       o<<<<< (ab) dotab        0.00
                       o<<<<< (ab) scat         0.00
                       o<<<<< (ab) sync         0.00
                       o<<<<< Density           0.01
                       o<<<<< Density one       0.00
                       o<<<<< Density two       0.00
                       o<<<<< Density ab        0.01
                       o<<<<< Spin adapt        0.29
                       o<<<<< Symm adapt        0.00

                       o<<<<< (ab) max sync:      0.00
       1.0000     -75.97365985 -2.41D-09 -2.41D-09  1.23D-08 1.6D-01      3.0

          Number of sigma calls:       11
                       o<<<<< (aa):             0.00
                       o<<<<< (bb):             0.00
                       o<<<<< (ab):             0.04
                       o<<<<< (total)           0.04
                       o<<<<< (aa) ff           0.00
                       o<<<<< (aa) gop          0.00
                       o<<<<< (aa) dot          0.00
                       o<<<<< (ab) str          0.00
                       o<<<<< (ab) gath         0.00
                       o<<<<< (ab) dotab        0.00
                       o<<<<< (ab) scat         0.00
                       o<<<<< (ab) sync         0.00
                       o<<<<< Density           0.01
                       o<<<<< Density one       0.00
                       o<<<<< Density two       0.00
                       o<<<<< Density ab        0.01
                       o<<<<< Spin adapt        0.24
                       o<<<<< Symm adapt        0.00

                       o<<<<< (ab) max sync:      0.00
       1.1961     -75.97365985  1.06D-12  1.46D-12  1.23D-08 7.2D-05      3.3



          %%%%% MacroIteration   3 %%%%%


          Number of sigma calls:        1
                       o<<<<< (aa):             0.00
                       o<<<<< (bb):             0.00
                       o<<<<< (ab):             0.00
                       o<<<<< (total)           0.01
                       o<<<<< (aa) ff           0.00
                       o<<<<< (aa) gop          0.00
                       o<<<<< (aa) dot          0.00
                       o<<<<< (ab) str          0.00
                       o<<<<< (ab) gath         0.00
                       o<<<<< (ab) dotab        0.00
                       o<<<<< (ab) scat         0.00
                       o<<<<< (ab) sync         0.00
                       o<<<<< Density           0.00
                       o<<<<< Density one       0.00
                       o<<<<< Density two       0.00
                       o<<<<< Density ab        0.00
                       o<<<<< Spin adapt        0.00
                       o<<<<< Symm adapt        0.00

                       o<<<<< (ab) max sync:      0.00

           >>>| Valence CI:            -82.292025658359
           >>>| MCSCF energy:          -75.973659845993
           >>>| Gradient norm:          0.449556472D-04




     ==============================
            MCSCF Converged
     ==============================



          Canonical Eigenvalues

              1      
    1  -20.6114
    2   -1.3068
    3   -0.6721
    4   -0.5489
    5   -0.3759
    6   -0.1939
    7   -0.0262
    8   -0.0129
    9    0.2844
   10    0.4046
   11    0.6253
   12    0.7093
   13    0.7787
   14    0.8251
   15    0.8503
   16    0.9031
   17    0.9794
   18    1.2476
   19    1.3482
   20    1.7152
   21    1.7446
   22    2.0299
   23    2.0343
   24    2.1514
   25    2.5625
   26    2.7527
   27    3.4456
   28    3.4573
   29    3.4574
   30    3.4632
   31    3.4732
   32    3.4849
   33    3.5086
   34    3.5344
   35    3.7413
   36    3.8746
   37    3.9061
   38    3.9504
   39    3.9690
   40    4.0159
   41    4.1594
   42    4.3944
   43    4.4479
   44    4.7224
   45    5.1374
   46    5.5383
   47    5.5432
   48    5.7947
   49    5.7984
   50    6.7022
   51    6.7279
   52    6.8064
   53    6.8321
   54    6.8892
   55    7.0289
   56    7.0562
   57    7.5077
   58   10.8006


          Converged CI vector

   Index           Coefficient          Config. Occupation
         1          0.75053149          1  2  3  4  5  1  2  3  4  5
         2          0.29055147          1  2  3  4  5  1  2  3  4  6
        23          0.04399752          1  2  3  4  5  1  2  3  5  8
         9          0.02864047          1  2  3  4  5  1  2  4  5  7
        41          0.02211037          1  2  3  4  5  1  2  5  7  8
        57          0.29055147          1  2  3  4  6  1  2  3  4  5
        58         -0.48810813          1  2  3  4  6  1  2  3  4  6
        83         -0.03336818          1  2  3  4  6  1  2  3  6  8
        69         -0.02244852          1  2  3  4  6  1  2  4  6  7
      1233          0.04399752          1  2  3  5  8  1  2  3  4  5
      1255         -0.04250837          1  2  3  5  8  1  2  3  5  8
      1241         -0.02692232          1  2  3  5  8  1  2  4  5  7
      1458         -0.03336818          1  2  3  6  8  1  2  3  4  6
      1483          0.02936718          1  2  3  6  8  1  2  3  6  8
       449          0.02864047          1  2  4  5  7  1  2  3  4  5
       471         -0.02692232          1  2  4  5  7  1  2  3  5  8
       457         -0.05682631          1  2  4  5  7  1  2  4  5  7
       461         -0.02267245          1  2  4  5  7  1  2  4  6  7
       458          0.02382692          1  2  4  5  7  1  3  4  5  7
       674         -0.02244852          1  2  4  6  7  1  2  3  4  6
       681         -0.02267245          1  2  4  6  7  1  2  4  5  7
       685          0.03808890          1  2  4  6  7  1  2  4  6  7
      2241          0.02211037          1  2  5  7  8  1  2  3  4  5
       513          0.02382692          1  3  4  5  7  1  2  4  5  7
       514         -0.02239024          1  3  4  5  7  1  3  4  5  7

          Number of sigma calls:        1
                       o<<<<< (aa):             0.00
                       o<<<<< (bb):             0.00
                       o<<<<< (ab):             0.00
                       o<<<<< (total)           0.01
                       o<<<<< (aa) ff           0.00
                       o<<<<< (aa) gop          0.00
                       o<<<<< (aa) dot          0.00
                       o<<<<< (ab) str          0.00
                       o<<<<< (ab) gath         0.00
                       o<<<<< (ab) dotab        0.00
                       o<<<<< (ab) scat         0.00
                       o<<<<< (ab) sync         0.00
                       o<<<<< Density           0.01
                       o<<<<< Density one       0.00
                       o<<<<< Density two       0.00
                       o<<<<< Density ab        0.01
                       o<<<<< Spin adapt        0.00
                       o<<<<< Symm adapt        0.00

                       o<<<<< (ab) max sync:      0.00



          Natural orbital occupation numbers

              1      
    1    2.0000
    2    1.9987
    3    1.9850
    4    1.9747
    5    1.3671
    6    0.6332
    7    0.0264
    8    0.0148


          Number of sigma calls:       23
                       o<<<<< (aa):             0.00
                       o<<<<< (bb):             0.01
                       o<<<<< (ab):             0.07
                       o<<<<< (total)           0.07
                       o<<<<< (aa) ff           0.00
                       o<<<<< (aa) gop          0.00
                       o<<<<< (aa) dot          0.00
                       o<<<<< (ab) str          0.00
                       o<<<<< (ab) gath         0.00
                       o<<<<< (ab) dotab        0.00
                       o<<<<< (ab) scat         0.00
                       o<<<<< (ab) sync         0.00
                       o<<<<< Density           0.01
                       o<<<<< Density one       0.00
                       o<<<<< Density two       0.00
                       o<<<<< Density ab        0.01
                       o<<<<< Spin adapt        0.31
                       o<<<<< Symm adapt        0.00

                       o<<<<< (ab) max sync:      0.00


       Final MCSCF results 
       ------------------- 

       Total MCSCF energy =    -75.973659845992
            Gradient norm =      4.5D-05

    CPU time for solution =      3.8s
   Wall time for solution =      7.0s



                        Analysis of MCSCF natural orbitals
                        ----------------------------------

 Vector    1  Occ=1.999992D+00  E=-2.061139D+01  Symmetry=a
              MO Center= -9.1D-02, -2.0D-01, -6.1D-14, r^2= 1.5D-02
   Bfn.  Coefficient  Atom+Function         Bfn.  Coefficient  Atom+Function  
  ----- ------------  ---------------      ----- ------------  ---------------
     1      0.974106  1 O  s          

 Vector    2  Occ=1.998741D+00  E=-1.306847D+00  Symmetry=a
              MO Center= -2.6D-01, -1.5D-01,  5.9D-11, r^2= 4.2D-01
   Bfn.  Coefficient  Atom+Function         Bfn.  Coefficient  Atom+Function  
  ----- ------------  ---------------      ----- ------------  ---------------
     2      0.552461  1 O  s                  4      0.402344  1 O  s          
     3      0.154153  1 O  s          

 Vector    3  Occ=1.985021D+00  E=-6.721271D-01  Symmetry=a
              MO Center= -6.2D-02, -2.1D-01, -5.8D-11, r^2= 6.2D-01
   Bfn.  Coefficient  Atom+Function         Bfn.  Coefficient  Atom+Function  
  ----- ------------  ---------------      ----- ------------  ---------------
    10      0.448200  1 O  pz                13      0.378794  1 O  pz         
     7      0.369873  1 O  pz         

 Vector    4  Occ=1.974657D+00  E=-5.489429D-01  Symmetry=a
              MO Center=  3.3D-01, -3.6D-01, -1.1D-12, r^2= 5.8D-01
   Bfn.  Coefficient  Atom+Function         Bfn.  Coefficient  Atom+Function  
  ----- ------------  ---------------      ----- ------------  ---------------
     8      0.331845  1 O  px                46      0.283185  3 H  s          
     5      0.276858  1 O  px                45      0.188473  3 H  s          
    11      0.178675  1 O  px         

 Vector    5  Occ=1.367136D+00  E=-3.758888D-01  Symmetry=a
              MO Center= -7.0D-02,  9.3D-01, -2.8D-13, r^2= 2.0D+00
   Bfn.  Coefficient  Atom+Function         Bfn.  Coefficient  Atom+Function  
  ----- ------------  ---------------      ----- ------------  ---------------
    32      0.323895  2 H  s                  9      0.309305  1 O  py         
    33      0.267222  2 H  s                  6      0.241884  1 O  py         
    12      0.214299  1 O  py                31      0.156924  2 H  s          

 Vector    6  Occ=6.332208D-01  E=-1.939059D-01  Symmetry=a
              MO Center= -8.0D-02,  1.0D+00, -5.2D-13, r^2= 2.1D+00
   Bfn.  Coefficient  Atom+Function         Bfn.  Coefficient  Atom+Function  
  ----- ------------  ---------------      ----- ------------  ---------------
    32      0.392381  2 H  s                  9     -0.352100  1 O  py         
     6     -0.272810  1 O  py                33      0.273378  2 H  s          
    12     -0.209202  1 O  py                31      0.180516  2 H  s          

 Vector    7  Occ=2.644935D-02  E=-2.617696D-02  Symmetry=a
              MO Center=  5.1D-01, -4.2D-01,  3.1D-13, r^2= 6.0D-01
   Bfn.  Coefficient  Atom+Function         Bfn.  Coefficient  Atom+Function  
  ----- ------------  ---------------      ----- ------------  ---------------
    46      0.701416  3 H  s                  5     -0.479613  1 O  px         
     8     -0.419737  1 O  px                45      0.348111  3 H  s          
     2     -0.288784  1 O  s                  4     -0.254370  1 O  s          
     6      0.169815  1 O  py                 9      0.151728  1 O  py         

 Vector    8  Occ=1.478217D-02  E=-1.292844D-02  Symmetry=a
              MO Center=  5.0D-02, -2.5D-01, -8.0D-11, r^2= 1.2D+00
   Bfn.  Coefficient  Atom+Function         Bfn.  Coefficient  Atom+Function  
  ----- ------------  ---------------      ----- ------------  ---------------
    13      0.805123  1 O  pz                 7     -0.642693  1 O  pz         
    10     -0.272228  1 O  pz                53      0.168638  3 H  pz         

 Vector    9  Occ=0.000000D+00  E= 2.843893D-01  Symmetry=a
              MO Center=  1.1D+00, -6.5D-01,  3.2D-11, r^2= 3.7D+00
   Bfn.  Coefficient  Atom+Function         Bfn.  Coefficient  Atom+Function  
  ----- ------------  ---------------      ----- ------------  ---------------
    47      1.945852  3 H  s                  4     -1.240447  1 O  s          
    11     -0.550366  1 O  px                51     -0.412001  3 H  px         
    46     -0.267435  3 H  s                 52      0.169704  3 H  py         
    32     -0.159552  2 H  s                 12      0.155279  1 O  py         

 Vector   10  Occ=0.000000D+00  E= 4.045530D-01  Symmetry=a
              MO Center= -1.0D-01,  2.4D+00,  4.5D-13, r^2= 3.3D+00
   Bfn.  Coefficient  Atom+Function         Bfn.  Coefficient  Atom+Function  
  ----- ------------  ---------------      ----- ------------  ---------------
    33      1.718116  2 H  s                 32     -1.363711  2 H  s          
    47     -0.435760  3 H  s                 46      0.298764  3 H  s          
    12     -0.281388  1 O  py         

 Vector   11  Occ=0.000000D+00  E= 6.253176D-01  Symmetry=a
              MO Center= -5.6D-01,  4.5D-01, -3.0D-12, r^2= 2.4D+00
   Bfn.  Coefficient  Atom+Function         Bfn.  Coefficient  Atom+Function  
  ----- ------------  ---------------      ----- ------------  ---------------
    46      2.750109  3 H  s                  4     -2.203058  1 O  s          
    11     -2.183794  1 O  px                51     -0.841289  3 H  px         
    12      0.760681  1 O  py                37     -0.377943  2 H  px         
    47      0.320733  3 H  s                 52      0.282312  3 H  py         
    23     -0.194171  1 O  d  2              33     -0.156340  2 H  s          

 Vector   12  Occ=0.000000D+00  E= 7.092569D-01  Symmetry=a
              MO Center= -6.4D-02,  1.1D+00, -2.4D-13, r^2= 2.4D+00
   Bfn.  Coefficient  Atom+Function         Bfn.  Coefficient  Atom+Function  
  ----- ------------  ---------------      ----- ------------  ---------------
    12      0.632370  1 O  py                38     -0.635136  2 H  py         
     4      0.580572  1 O  s                  9     -0.488936  1 O  py         
    11      0.439076  1 O  px                47     -0.265330  3 H  s          
    46     -0.263043  3 H  s                 32     -0.212785  2 H  s          
     2     -0.172764  1 O  s                  6     -0.157837  1 O  py         

 Vector   13  Occ=0.000000D+00  E= 7.787070D-01  Symmetry=a
              MO Center=  5.7D-04,  1.8D+00,  1.9D-12, r^2= 1.9D+00
   Bfn.  Coefficient  Atom+Function         Bfn.  Coefficient  Atom+Function  
  ----- ------------  ---------------      ----- ------------  ---------------
    39      0.974420  2 H  pz                53     -0.456247  3 H  pz         
    13      0.272062  1 O  pz         

 Vector   14  Occ=0.000000D+00  E= 8.250688D-01  Symmetry=a
              MO Center= -3.1D-02,  1.1D+00, -1.0D-12, r^2= 3.1D+00
   Bfn.  Coefficient  Atom+Function         Bfn.  Coefficient  Atom+Function  
  ----- ------------  ---------------      ----- ------------  ---------------
    46      1.358884  3 H  s                  4     -1.228601  1 O  s          
    11     -1.152483  1 O  px                37      0.819674  2 H  px         
    52      0.694314  3 H  py                12      0.314044  1 O  py         
    51     -0.242525  3 H  px                47      0.220874  3 H  s          
    38      0.212656  2 H  py                33     -0.169578  2 H  s          

 Vector   15  Occ=0.000000D+00  E= 8.502619D-01  Symmetry=a
              MO Center=  4.8D-01,  2.9D-01, -5.9D-14, r^2= 2.8D+00
   Bfn.  Coefficient  Atom+Function         Bfn.  Coefficient  Atom+Function  
  ----- ------------  ---------------      ----- ------------  ---------------
    52      0.787806  3 H  py                37     -0.534443  2 H  px         
     4     -0.442583  1 O  s                  9     -0.333634  1 O  py         
    47      0.282388  3 H  s                 38      0.267511  2 H  py         
     8     -0.263067  1 O  px                 2      0.207914  1 O  s          
    12      0.197044  1 O  py                33     -0.172798  2 H  s          

 Vector   16  Occ=0.000000D+00  E= 9.031058D-01  Symmetry=a
              MO Center=  3.8D-01, -6.7D-02, -4.5D-12, r^2= 2.5D+00
   Bfn.  Coefficient  Atom+Function         Bfn.  Coefficient  Atom+Function  
  ----- ------------  ---------------      ----- ------------  ---------------
    53      1.164504  3 H  pz                13     -0.909904  1 O  pz         
    39      0.418299  2 H  pz         

 Vector   17  Occ=0.000000D+00  E= 9.793519D-01  Symmetry=a
              MO Center= -6.5D-02, -4.9D-01,  2.7D-11, r^2= 2.6D+00
   Bfn.  Coefficient  Atom+Function         Bfn.  Coefficient  Atom+Function  
  ----- ------------  ---------------      ----- ------------  ---------------
     4      2.939492  1 O  s                 46     -1.847714  3 H  s          
    12     -1.423958  1 O  py                51      1.126329  3 H  px         
    47     -0.828208  3 H  s                 11      0.731919  1 O  px         
     2     -0.694028  1 O  s                  8      0.554327  1 O  px         
    38     -0.483284  2 H  py                52      0.390130  3 H  py         

 Vector   18  Occ=0.000000D+00  E= 1.247602D+00  Symmetry=a
              MO Center= -6.8D-02,  7.4D-01,  3.6D-11, r^2= 2.3D+00
   Bfn.  Coefficient  Atom+Function         Bfn.  Coefficient  Atom+Function  
  ----- ------------  ---------------      ----- ------------  ---------------
     4      3.144491  1 O  s                 46     -1.733964  3 H  s          
     2     -0.906459  1 O  s                 11      0.887084  1 O  px         
    51      0.757185  3 H  px                38      0.699678  2 H  py         
    52     -0.687474  3 H  py                12      0.532386  1 O  py         
     8      0.512796  1 O  px                47     -0.491499  3 H  s          


 Wrote Lagrangian and 1- and 2-particle density matrices to ./H2O.mcpdm


     Multipole analysis of the density
     ---------------------------------

     L   x y z        total        nuclear
     -   - - -        -----        -------
     0   0 0 0     -0.000000     10.000000

     1   1 0 0      0.585567     -0.000000
     1   0 1 0     -0.156149      0.000000
     1   0 0 1      0.000000      0.000000

     2   2 0 0     -4.445060      2.679864
     2   1 1 0     -0.587521     -1.777097
     2   1 0 1     -0.000000      0.000000
     2   0 2 0     -4.257379     18.868979
     2   0 1 1     -0.000000      0.000000
     2   0 0 2     -5.932469      0.000000


  Mulliken analysis of the total density
  --------------------------------------

    Atom       Charge   Shell Charges
 -----------   ------   -------------------------------------------------------
    1 O    8     8.25   1.95  1.06  0.25  0.64  1.22  1.95  1.17  0.00  0.01  0.00
    2 H    1     0.99   0.17  0.48  0.34 -0.00  0.00 -0.00
    3 H    1     0.77   0.25  0.40  0.03  0.02  0.06  0.01

    Mulliken analysis of the active space density
    ---------------------------------------------

    Atom       Charge   Shell Charges
 -----------   ------   -------------------------------------------------------
    1 O    8     8.25   1.95  1.06  0.25  0.64  1.22  1.95  1.17  0.00  0.01  0.00
    2 H    1     0.99   0.17  0.48  0.34 -0.00  0.00 -0.00
    3 H    1     0.77   0.25  0.40  0.03  0.02  0.06  0.01

 Parallel integral file used      14 records with       0 large values


 Task  times  cpu:        3.8s     wall:        7.1s


                                NWChem Input Module
                                -------------------


                                 NWChem SCF Module
                                 -----------------


                                        H2O



  ao basis        = "ao basis"
  functions       =    58
  atoms           =     3
  closed shells   =     5
  open shells     =     0
  charge          =   0.00
  wavefunction    = RHF 
  input vectors   = ./h2o.mos
  output vectors  = ./h2o-trash.mos
  use symmetry    = F
  symmetry adapt  = F


 Summary of "ao basis" -> "ao basis" (spherical)
 ------------------------------------------------------------------------------
       Tag                 Description            Shells   Functions and Types
 ---------------- ------------------------------  ------  ---------------------
 O                          cc-pVTZ                 10       30   4s3p2d1f
 H                          cc-pVTZ                  6       14   3s2p1d



 Forming initial guess at       7.1s


 Loading old vectors from job with title :

H2O


 Starting SCF solution at       7.1s



 ----------------------------------------------
         Quadratically convergent ROHF

 Convergence threshold     :          1.000E-04
 Maximum no. of iterations :           30
 Final Fock-matrix accuracy:          1.000E-07
 ----------------------------------------------


 Integral file          = ./H2O.aoints.0
 Record size in doubles =  65536        No. of integs per rec  =  43688
 Max. records in memory =     49        Max. records in file   = 250687
 No. of bits per label  =      8        No. of bits per value  =     64


 #quartets = 3.146D+04 #integrals = 5.954D+05 #direct =  0.0% #cached =100.0%



       Final RHF  results 
       ------------------ 

         Total SCF energy =    -75.745239103072
      One-electron energy =   -117.125876995575
      Two-electron energy =     35.062272080137
 Nuclear repulsion energy =      6.318365812366

        Time for solution =      0.1s


             Final eigenvalues
             -----------------

              1      
    1  -20.6114
    2   -1.3068
    3   -0.6721
    4   -0.5489
    5   -0.3759
    6   -0.1939
    7   -0.0262
    8   -0.0129
    9    0.2844
   10    0.4046
   11    0.6253
   12    0.7093
   13    0.7787
   14    0.8251
   15    0.8503

                       ROHF Final Molecular Orbital Analysis
                       -------------------------------------

 Vector    2  Occ=2.000000D+00  E=-1.306847D+00
              MO Center= -2.6D-01, -1.5D-01,  5.9D-11, r^2= 4.2D-01
   Bfn.  Coefficient  Atom+Function         Bfn.  Coefficient  Atom+Function  
  ----- ------------  ---------------      ----- ------------  ---------------
     2      0.552461  1 O  s                  4      0.402344  1 O  s          
     3      0.154153  1 O  s          

 Vector    3  Occ=2.000000D+00  E=-6.721271D-01
              MO Center= -6.2D-02, -2.1D-01, -5.8D-11, r^2= 6.2D-01
   Bfn.  Coefficient  Atom+Function         Bfn.  Coefficient  Atom+Function  
  ----- ------------  ---------------      ----- ------------  ---------------
    10      0.448200  1 O  pz                13      0.378794  1 O  pz         
     7      0.369873  1 O  pz         

 Vector    4  Occ=2.000000D+00  E=-5.489429D-01
              MO Center=  3.3D-01, -3.6D-01, -1.1D-12, r^2= 5.8D-01
   Bfn.  Coefficient  Atom+Function         Bfn.  Coefficient  Atom+Function  
  ----- ------------  ---------------      ----- ------------  ---------------
     8      0.331845  1 O  px                46      0.283185  3 H  s          
     5      0.276858  1 O  px                45      0.188473  3 H  s          
    11      0.178675  1 O  px         

 Vector    5  Occ=2.000000D+00  E=-3.758888D-01
              MO Center= -7.0D-02,  9.3D-01, -2.8D-13, r^2= 2.0D+00
   Bfn.  Coefficient  Atom+Function         Bfn.  Coefficient  Atom+Function  
  ----- ------------  ---------------      ----- ------------  ---------------
    32      0.323895  2 H  s                  9      0.309305  1 O  py         
    33      0.267222  2 H  s                  6      0.241884  1 O  py         
    12      0.214299  1 O  py                31      0.156924  2 H  s          

 Vector    6  Occ=0.000000D+00  E=-1.939059D-01
              MO Center= -8.0D-02,  1.0D+00, -5.2D-13, r^2= 2.1D+00
   Bfn.  Coefficient  Atom+Function         Bfn.  Coefficient  Atom+Function  
  ----- ------------  ---------------      ----- ------------  ---------------
    32      0.392381  2 H  s                  9     -0.352100  1 O  py         
     6     -0.272810  1 O  py                33      0.273378  2 H  s          
    12     -0.209202  1 O  py                31      0.180516  2 H  s          

 Vector    7  Occ=0.000000D+00  E=-2.617696D-02
              MO Center=  5.1D-01, -4.2D-01,  3.1D-13, r^2= 6.0D-01
   Bfn.  Coefficient  Atom+Function         Bfn.  Coefficient  Atom+Function  
  ----- ------------  ---------------      ----- ------------  ---------------
    46      0.701416  3 H  s                  5     -0.479613  1 O  px         
     8     -0.419737  1 O  px                45      0.348111  3 H  s          
     2     -0.288784  1 O  s                  4     -0.254370  1 O  s          
     6      0.169815  1 O  py                 9      0.151728  1 O  py         

 Vector    8  Occ=0.000000D+00  E=-1.292844D-02
              MO Center=  5.0D-02, -2.5D-01, -8.0D-11, r^2= 1.2D+00
   Bfn.  Coefficient  Atom+Function         Bfn.  Coefficient  Atom+Function  
  ----- ------------  ---------------      ----- ------------  ---------------
    13      0.805123  1 O  pz                 7     -0.642693  1 O  pz         
    10     -0.272228  1 O  pz                53      0.168638  3 H  pz         

 Vector    9  Occ=0.000000D+00  E= 2.843893D-01
              MO Center=  1.1D+00, -6.5D-01,  3.2D-11, r^2= 3.7D+00
   Bfn.  Coefficient  Atom+Function         Bfn.  Coefficient  Atom+Function  
  ----- ------------  ---------------      ----- ------------  ---------------
    47      1.945852  3 H  s                  4     -1.240447  1 O  s          
    11     -0.550366  1 O  px                51     -0.412001  3 H  px         
    46     -0.267435  3 H  s                 52      0.169704  3 H  py         
    32     -0.159552  2 H  s                 12      0.155279  1 O  py         

 Vector   10  Occ=0.000000D+00  E= 4.045530D-01
              MO Center= -1.0D-01,  2.4D+00,  4.5D-13, r^2= 3.3D+00
   Bfn.  Coefficient  Atom+Function         Bfn.  Coefficient  Atom+Function  
  ----- ------------  ---------------      ----- ------------  ---------------
    33      1.718116  2 H  s                 32     -1.363711  2 H  s          
    47     -0.435760  3 H  s                 46      0.298764  3 H  s          
    12     -0.281388  1 O  py         

 Vector   11  Occ=0.000000D+00  E= 6.253176D-01
              MO Center= -5.6D-01,  4.5D-01, -3.0D-12, r^2= 2.4D+00
   Bfn.  Coefficient  Atom+Function         Bfn.  Coefficient  Atom+Function  
  ----- ------------  ---------------      ----- ------------  ---------------
    46      2.750109  3 H  s                  4     -2.203058  1 O  s          
    11     -2.183794  1 O  px                51     -0.841289  3 H  px         
    12      0.760681  1 O  py                37     -0.377943  2 H  px         
    47      0.320733  3 H  s                 52      0.282312  3 H  py         
    23     -0.194171  1 O  d  2              33     -0.156340  2 H  s          

 Vector   12  Occ=0.000000D+00  E= 7.092569D-01
              MO Center= -6.4D-02,  1.1D+00, -2.4D-13, r^2= 2.4D+00
   Bfn.  Coefficient  Atom+Function         Bfn.  Coefficient  Atom+Function  
  ----- ------------  ---------------      ----- ------------  ---------------
    12      0.632370  1 O  py                38     -0.635136  2 H  py         
     4      0.580572  1 O  s                  9     -0.488936  1 O  py         
    11      0.439076  1 O  px                47     -0.265330  3 H  s          
    46     -0.263043  3 H  s                 32     -0.212785  2 H  s          
     2     -0.172764  1 O  s                  6     -0.157837  1 O  py         

 Vector   13  Occ=0.000000D+00  E= 7.787070D-01
              MO Center=  5.7D-04,  1.8D+00,  1.9D-12, r^2= 1.9D+00
   Bfn.  Coefficient  Atom+Function         Bfn.  Coefficient  Atom+Function  
  ----- ------------  ---------------      ----- ------------  ---------------
    39      0.974420  2 H  pz                53     -0.456247  3 H  pz         
    13      0.272062  1 O  pz         

 Vector   14  Occ=0.000000D+00  E= 8.250688D-01
              MO Center= -3.1D-02,  1.1D+00, -1.0D-12, r^2= 3.1D+00
   Bfn.  Coefficient  Atom+Function         Bfn.  Coefficient  Atom+Function  
  ----- ------------  ---------------      ----- ------------  ---------------
    46      1.358884  3 H  s                  4     -1.228601  1 O  s          
    11     -1.152483  1 O  px                37      0.819674  2 H  px         
    52      0.694314  3 H  py                12      0.314044  1 O  py         
    51     -0.242525  3 H  px                47      0.220874  3 H  s          
    38      0.212656  2 H  py                33     -0.169578  2 H  s          

 Vector   15  Occ=0.000000D+00  E= 8.502619D-01
              MO Center=  4.8D-01,  2.9D-01, -5.9D-14, r^2= 2.8D+00
   Bfn.  Coefficient  Atom+Function         Bfn.  Coefficient  Atom+Function  
  ----- ------------  ---------------      ----- ------------  ---------------
    52      0.787806  3 H  py                37     -0.534443  2 H  px         
     4     -0.442583  1 O  s                  9     -0.333634  1 O  py         
    47      0.282388  3 H  s                 38      0.267511  2 H  py         
     8     -0.263067  1 O  px                 2      0.207914  1 O  s          
    12      0.197044  1 O  py                33     -0.172798  2 H  s          


 center of mass
 --------------
 x =  -0.07599894 y =  -0.16791438 z =   0.00000000

 moments of inertia (a.u.)
 ------------------
          19.661820368729           1.498985811441           0.000000000000
           1.498985811441           2.833002082974           0.000000000000
           0.000000000000           0.000000000000          22.494822451703

  Mulliken analysis of the total density
  --------------------------------------

    Atom       Charge   Shell Charges
 -----------   ------   -------------------------------------------------------
    1 O    8     8.27   1.95  1.06  0.25  0.64  1.20  1.95  1.21  0.00  0.01  0.00
    2 H    1     0.97   0.16  0.45  0.36 -0.00  0.00  0.00
    3 H    1     0.76   0.25  0.39  0.03  0.02  0.06  0.01

       Multipole analysis of the density wrt the origin
       ------------------------------------------------

     L   x y z        total         open         nuclear
     -   - - -        -----         ----         -------
     0   0 0 0     -0.000000      0.000000     10.000000

     1   1 0 0      0.586838      0.000000     -0.000000
     1   0 1 0     -0.036319      0.000000      0.000000
     1   0 0 1      0.000000      0.000000      0.000000

     2   2 0 0     -4.492650      0.000000      2.679864
     2   1 1 0     -0.680990      0.000000     -1.777097
     2   1 0 1     -0.000000      0.000000      0.000000
     2   0 2 0     -3.483218      0.000000     18.868979
     2   0 1 1     -0.000000      0.000000      0.000000
     2   0 0 2     -5.976410      0.000000      0.000000


 Parallel integral file used      14 records with       0 large values

 ------------------------------------
     Number of active orbitals      8
     Number of active alpha electrons      5
     Number of active beta electrons       5
 ------------------------------------
                   NWChem Extensible Many-Electron Theory Module
                   ---------------------------------------------

              ======================================================
                   This portion of the program was automatically
                  generated by a Tensor Contraction Engine (TCE).
                  The development of this portion of the program
                 and TCE was supported by US Department of Energy,
                Office of Science, Office of Basic Energy Science.
                      TCE is a product of Battelle and PNNL.
              Please cite: S.Hirata, J.Phys.Chem.A 107, 9887 (2003).
              ======================================================

                                        H2O


            General Information
            -------------------
      Number of processors :     1
         Wavefunction type : Restricted Hartree-Fock
          No. of electrons :    10
           Alpha electrons :     5
            Beta electrons :     5
           No. of orbitals :   116
            Alpha orbitals :    58
             Beta orbitals :    58
        Alpha frozen cores :     0
         Beta frozen cores :     0
     Alpha frozen virtuals :    50
      Beta frozen virtuals :    50
         Spin multiplicity : singlet 
    Number of AO functions :    58
       Number of AO shells :    22
        Use of symmetry is : off
      Symmetry adaption is : off
         Schwarz screening : 0.10D-09

          Correlation Information
          -----------------------
          Calculation type : Coupled-cluster singles & doubles                           
   Perturbative correction : none                                                        
            Max iterations :      300
        Residual threshold : 0.10D-06
     T(0) DIIS level shift : 0.00D+00
     L(0) DIIS level shift : 0.00D+00
     T(1) DIIS level shift : 0.00D+00
     L(1) DIIS level shift : 0.00D+00
     T(R) DIIS level shift : 0.00D+00
     T(I) DIIS level shift : 0.00D+00
   CC-T/L Amplitude update :  5-th order DIIS
                I/O scheme : Global Array Library
        L-threshold :  0.10D-06
        EOM-threshold :  0.10D-06
 no EOMCCSD initial starts read in
 TCE RESTART OPTIONS
 READ_INT:   F
 WRITE_INT:  F
 READ_TA:    F
 WRITE_TA:   F
 READ_XA:    F
 WRITE_XA:   F
 READ_IN3:   F
 WRITE_IN3:  F
 SLICE:      F
 D4D5:       F
 quantumc:   T
 qrotation:  F
 pwtce:      F
 qducc:      F
 nacto:                         0
 nrotv:                         0
 nrot:                          0

            Memory Information
            ------------------
          Available GA space size is    1610609372 doubles
          Available MA space size is    1610609772 doubles

 Maximum block size supplied by input
 Maximum block size         1 doubles

 tile_dim =      1

 Block   Spin    Irrep     Size     Offset   Alpha
 -------------------------------------------------
   1    alpha     a      1 doubles       0       1
   2    alpha     a      1 doubles       1       2
   3    alpha     a      1 doubles       2       3
   4    alpha     a      1 doubles       3       4
   5    alpha     a      1 doubles       4       5
   6    beta      a      1 doubles       5       1
   7    beta      a      1 doubles       6       2
   8    beta      a      1 doubles       7       3
   9    beta      a      1 doubles       8       4
  10    beta      a      1 doubles       9       5
  11    alpha     a      1 doubles      10      11
  12    alpha     a      1 doubles      11      12
  13    alpha     a      1 doubles      12      13
  14    beta      a      1 doubles      13      11
  15    beta      a      1 doubles      14      12
  16    beta      a      1 doubles      15      13

 Global array virtual files algorithm will be used

 Parallel file system coherency ......... OK

 Integral file          = ./H2O.aoints.0
 Record size in doubles =  65536        No. of integs per rec  =  43688
 Max. records in memory =     49        Max. records in file   = 250687
 No. of bits per label  =      8        No. of bits per value  =     64


 #quartets = 3.196D+04 #integrals = 6.425D+05 #direct =  0.0% #cached =100.0%


 Fock matrix recomputed
 1-e file size   =               64
 1-e file name   = ./H2O.f1
 Cpu & wall time / sec            0.1            0.1
 4-electron integrals stored in orbital form

 v2    file size   =              666
 4-index algorithm nr.  13 is used
 imaxsize =       30
 imaxsize ichop =        0
 begin_one_electron_integrals
    1    1       -32.6670503355
    2    1        -0.9644068775
    4    1         0.1375037436
    5    1        -0.0271251774
    6    1        -0.0375036659
    7    1        -0.2109832254
    1    2        -0.9644068775
    2    2        -7.6431443987
    4    2        -0.2623961710
    5    2         0.0953545374
    6    2         0.1514173455
    7    2         0.1254871642
    3    3        -6.8530399250
    8    3         2.1164151898
    1    4         0.1375037436
    2    4        -0.2623961710
    4    4        -6.6270443247
    5    4        -0.0456748579
    6    4        -0.0323663139
    7    4         1.9163689469
    1    5        -0.0271251774
    2    5         0.0953545374
    4    5        -0.0456748579
    5    5        -4.7726595138
    6    5         2.3020202870
    7    5         0.0151380441
    1    6        -0.0375036659
    2    6         0.1514173455
    4    6        -0.0323663139
    5    6         2.3020202870
    6    6        -4.7842338895
    7    6         0.0140038312
    1    7        -0.2109832254
    2    7         0.1254871642
    4    7         1.9163689469
    5    7         0.0151380441
    6    7         0.0140038312
    7    7        -5.8952444885
    3    8         2.1164151898
    8    8        -5.2270043631
 end_one_electron_integrals
 begin_two_electron_integrals
    1    1    1    1        4.8266707555
    2    1    1    1       -0.2320368617
    2    1    2    1        0.0305706474
    3    1    3    1        0.0284125552
    4    1    1    1       -0.0896466592
    4    1    2    1        0.0025744347
    4    1    4    1        0.0212483188
    4    1    2    2       -0.0139867378
    4    1    3    3       -0.0025056159
    5    1    1    1        0.0159874201
    5    1    2    1       -0.0016664770
    5    1    4    1        0.0001233650
    5    1    5    1        0.0142507466
    5    1    2    2        0.0006845830
    5    1    4    2        0.0004419362
    5    1    3    3        0.0012871599
    5    1    4    4        0.0012981844
    6    1    1    1        0.0241250006
    6    1    2    1       -0.0020399916
    6    1    4    1       -0.0002605254
    6    1    5    1       -0.0153868564
    6    1    6    1        0.0171749869
    6    1    2    2        0.0017343963
    6    1    4    2        0.0004033089
    6    1    5    2       -0.0143993945
    6    1    3    3        0.0015659832
    6    1    4    4        0.0015618525
    6    1    5    4       -0.0027939851
    6    1    5    5        0.0006329357
    7    1    1    1        0.1714235824
    7    1    2    1       -0.0078593025
    7    1    4    1       -0.0329264164
    7    1    5    1        0.0001644495
    7    1    6    1        0.0005222964
    7    1    7    1        0.0517066716
    7    1    2    2        0.0223183541
    7    1    4    2       -0.0259210566
    7    1    5    2       -0.0009930508
    7    1    6    2       -0.0013003856
    7    1    3    3        0.0037946597
    7    1    4    4       -0.0145287052
    7    1    5    4        0.0005311591
    7    1    6    4        0.0008075243
    7    1    5    5        0.0025094315
    7    1    6    5       -0.0016008469
    7    1    6    6        0.0026762541
    8    1    3    1       -0.0397469338
    8    1    8    1        0.0560538392
    8    1    3    2       -0.0387208976
    8    1    4    3       -0.0075341251
    8    1    5    3        0.0008787203
    8    1    6    3        0.0015753168
    8    1    7    3        0.0104582372
    2    2    1    1        1.0822686804
    2    2    2    1        0.0085949832
    2    2    2    2        0.8279919997
    3    2    3    1        0.0255422560
    3    2    3    2        0.1446280697
    4    2    1    1       -0.0057118869
    4    2    2    1       -0.0039629178
    4    2    4    1        0.0163838716
    4    2    2    2       -0.0571798317
    4    2    4    2        0.0910125619
    4    2    3    3        0.0107059549
    5    2    1    1       -0.0269116831
    5    2    2    1       -0.0004169510
    5    2    4    1        0.0007405830
    5    2    5    1        0.0127322993
    5    2    2    2       -0.0182942176
    5    2    4    2        0.0021009143
    5    2    5    2        0.0767476910
    5    2    3    3       -0.0137412698
    5    2    4    4       -0.0110259402
    6    2    1    1       -0.0289693776
    6    2    2    1       -0.0001620337
    6    2    4    1        0.0007293663
    6    2    5    1       -0.0135460678
    6    2    6    1        0.0150371151
    6    2    2    2       -0.0162970604
    6    2    4    2        0.0029768750
    6    2    5    2       -0.0745500450
    6    2    6    2        0.0758362264
    6    2    3    3       -0.0154115893
    6    2    4    4       -0.0106138722
    6    2    5    4       -0.0113497558
    6    2    5    5       -0.0131737685
    7    2    1    1       -0.0265553337
    7    2    2    1        0.0046328346
    7    2    4    1       -0.0160419250
    7    2    5    1       -0.0003328544
    7    2    6    1       -0.0006636270
    7    2    7    1        0.0238529349
    7    2    2    2        0.0287825378
    7    2    4    2       -0.0610893174
    7    2    5    2       -0.0004845953
    7    2    6    2       -0.0028970820
    7    2    7    2        0.0533911048
    7    2    3    3       -0.0195808857
    7    2    4    4       -0.0360599345
    7    2    5    4        0.0011533906
    7    2    6    4        0.0019499303
    7    2    5    5       -0.0097865106
    7    2    6    5        0.0126097657
    7    2    6    6       -0.0113051385
    8    2    3    1       -0.0207155674
    8    2    8    1        0.0274419381
    8    2    3    2       -0.0541785078
    8    2    8    2        0.0450823017
    8    2    4    3       -0.0029515881
    8    2    5    3        0.0016174587
    8    2    6    3        0.0029932561
    8    2    7    3        0.0115204100
    3    3    1    1        1.0501743907
    3    3    2    1        0.0064893765
    3    3    2    2        0.7422444442
    3    3    3    3        0.7616959168
    4    3    3    1        0.0051793720
    4    3    3    2        0.0231917768
    4    3    4    3        0.0365958965
    5    3    3    1       -0.0006424101
    5    3    3    2       -0.0030155174
    5    3    4    3        0.0000243796
    5    3    5    3        0.0192901596
    6    3    3    1       -0.0011006008
    6    3    3    2       -0.0049213002
    6    3    4    3       -0.0004684889
    6    3    5    3       -0.0190104190
    6    3    6    3        0.0196485619
    7    3    3    1       -0.0078604998
    7    3    3    2       -0.0223555988
    7    3    4    3       -0.0206887820
    7    3    5    3        0.0004598069
    7    3    6    3        0.0006855160
    7    3    7    3        0.0252841626
    8    3    1    1       -0.5372434954
    8    3    2    1       -0.0037108131
    8    3    4    1        0.0043326897
    8    3    5    1       -0.0010347443
    8    3    6    1       -0.0010906045
    8    3    7    1       -0.0076017162
    8    3    2    2       -0.2192960439
    8    3    4    2        0.0106470600
    8    3    5    2        0.0064077528
    8    3    6    2        0.0086576425
    8    3    7    2        0.0060294106
    8    3    3    3       -0.2124065693
    8    3    8    3        0.1661215913
    8    3    4    4       -0.1395110754
    8    3    5    4       -0.0023638872
    8    3    6    4       -0.0011831744
    8    3    7    4        0.1250945213
    8    3    5    5       -0.1006829746
    8    3    6    5        0.0974011314
    8    3    7    5        0.0013777528
    8    3    6    6       -0.1103003678
    8    3    7    6        0.0015429988
    8    3    7    7       -0.1644167844
    4    4    1    1        0.9085179729
    4    4    2    1        0.0033114558
    4    4    4    1        0.0084110312
    4    4    2    2        0.6365557630
    4    4    4    2        0.0804457812
    4    4    3    3        0.6384108766
    4    4    4    4        0.7746340397
    5    4    1    1        0.0096797718
    5    4    2    1        0.0001757079
    5    4    4    1       -0.0003464267
    5    4    5    1        0.0025592923
    5    4    2    2        0.0061679642
    5    4    4    2       -0.0013683036
    5    4    5    2        0.0103123377
    5    4    3    3        0.0050519251
    5    4    4    4        0.0047631786
    5    4    5    4        0.0183286234
    6    4    1    1        0.0064771713
    6    4    2    1        0.0002742722
    6    4    4    1       -0.0005923849
    6    4    5    1       -0.0027558961
    6    4    6    1        0.0030623207
    6    4    2    2        0.0061277795
    6    4    4    2       -0.0014351744
    6    4    5    2       -0.0126441307
    6    4    6    2        0.0122779703
    6    4    3    3        0.0038582402
    6    4    4    4        0.0049784589
    6    4    5    4       -0.0182346358
    6    4    6    4        0.0191439660
    6    4    5    5       -0.0024722281
    7    4    1    1       -0.4725156415
    7    4    2    1       -0.0013806544
    7    4    4    1       -0.0038111830
    7    4    5    1       -0.0010154247
    7    4    6    1       -0.0010953339
    7    4    7    1        0.0023894230
    7    4    2    2       -0.2124859859
    7    4    4    2        0.0151085283
    7    4    5    2        0.0053757960
    7    4    6    2        0.0077694175
    7    4    7    2        0.0162119270
    7    4    3    3       -0.1832461325
    7    4    4    4       -0.0949954369
    7    4    5    4       -0.0018230680
    7    4    6    4        0.0008351682
    7    4    7    4        0.2134143007
    7    4    5    5       -0.1029378169
    7    4    6    5        0.0900837294
    7    4    6    6       -0.1109734511
    8    4    3    1       -0.0022336460
    8    4    8    1        0.0020167568
    8    4    3    2        0.0072482318
    8    4    8    2        0.0029424451
    8    4    4    3       -0.0003487730
    8    4    5    3       -0.0001696270
    8    4    6    3        0.0000591220
    8    4    7    3        0.0152194524
    8    4    8    4        0.0195590088
    5    5    1    1        0.6484159653
    5    5    2    1        0.0032898049
    5    5    4    1       -0.0015117894
    5    5    5    1        0.0002351289
    5    5    2    2        0.4957367442
    5    5    4    2        0.0003284879
    5    5    5    2        0.0068869051
    5    5    3    3        0.4616086552
    5    5    4    4        0.4288615339
    5    5    5    4        0.0019087846
    5    5    5    5        0.4622698027
    6    5    1    1       -0.4377641929
    6    5    2    1       -0.0035127441
    6    5    4    1        0.0012013868
    6    5    5    1       -0.0008109673
    6    5    6    1       -0.0012192948
    6    5    2    2       -0.2686226178
    6    5    4    2       -0.0091011718
    6    5    5    2        0.0199550358
    6    5    6    2        0.0012846948
    6    5    3    3       -0.2452327380
    6    5    4    4       -0.2243558706
    6    5    5    4       -0.0039969457
    6    5    6    4       -0.0057725304
    6    5    5    5       -0.0512182590
    6    5    6    5        0.2450994723
    7    5    1    1       -0.0039832969
    7    5    2    1       -0.0001125895
    7    5    4    1        0.0003215910
    7    5    5    1       -0.0043019060
    7    5    6    1        0.0047542095
    7    5    7    1       -0.0005471534
    7    5    2    2       -0.0023137741
    7    5    4    2        0.0020038226
    7    5    5    2       -0.0144453647
    7    5    6    2        0.0150040067
    7    5    7    2       -0.0014899797
    7    5    3    3       -0.0010204827
    7    5    4    4        0.0002778623
    7    5    5    4       -0.0112593184
    7    5    6    4        0.0121297545
    7    5    7    4        0.0022751884
    7    5    5    5       -0.0023060997
    7    5    6    5       -0.0011605961
    7    5    7    5        0.0139092640
    7    5    6    6       -0.0031030939
    8    5    3    1        0.0005245156
    8    5    8    1       -0.0007956581
    8    5    3    2        0.0031087294
    8    5    8    2       -0.0008526492
    8    5    4    3        0.0002213276
    8    5    5    3       -0.0054267064
    8    5    6    3        0.0064673243
    8    5    7    3       -0.0001028140
    8    5    8    4        0.0004937335
    8    5    8    5        0.0091388104
    6    6    1    1        0.6792486425
    6    6    2    1        0.0036184153
    6    6    4    1       -0.0016187737
    6    6    5    1        0.0017297880
    6    6    6    1       -0.0008265134
    6    6    2    2        0.5001491634
    6    6    4    2        0.0018058899
    6    6    5    2        0.0101786412
    6    6    6    2       -0.0176478994
    6    6    3    3        0.4661226870
    6    6    4    4        0.4321724834
    6    6    5    4        0.0014883537
    6    6    6    4       -0.0023322542
    6    6    5    5        0.4741561072
    6    6    6    5       -0.0423889864
    6    6    6    6        0.4923910858
    7    6    1    1       -0.0044862365
    7    6    2    1       -0.0003575515
    7    6    4    1        0.0008080306
    7    6    5    1        0.0046830247
    7    6    6    1       -0.0051184920
    7    6    7    1       -0.0012514781
    7    6    2    2       -0.0054194287
    7    6    4    2        0.0042123818
    7    6    5    2        0.0155423766
    7    6    6    2       -0.0157679089
    7    6    7    2       -0.0025047948
    7    6    3    3       -0.0013174068
    7    6    4    4        0.0030008477
    7    6    5    4        0.0124509714
    7    6    6    4       -0.0133726817
    7    6    7    4        0.0035635555
    7    6    5    5       -0.0012691145
    7    6    6    5        0.0003037616
    7    6    7    5       -0.0145122657
    7    6    6    6       -0.0006290169
    7    6    7    6        0.0159009502
    8    6    3    1        0.0011118463
    8    6    8    1       -0.0016841842
    8    6    3    2        0.0053735010
    8    6    8    2       -0.0020314825
    8    6    4    3        0.0008152024
    8    6    5    3        0.0072461152
    8    6    6    3       -0.0081994047
    8    6    7    3       -0.0005241390
    8    6    8    4        0.0005147667
    8    6    8    5       -0.0083148693
    8    6    8    6        0.0091713009
    7    7    1    1        1.0487462456
    7    7    2    1        0.0010046744
    7    7    4    1        0.0082016360
    7    7    5    1        0.0017887291
    7    7    6    1        0.0020588648
    7    7    7    1       -0.0130587931
    7    7    2    2        0.6306943788
    7    7    4    2        0.0706936506
    7    7    5    2       -0.0113482410
    7    7    6    2       -0.0115227774
    7    7    7    2       -0.0350067635
    7    7    3    3        0.6356949430
    7    7    4    4        0.7576240603
    7    7    5    4        0.0051515220
    7    7    6    4        0.0056049157
    7    7    7    4       -0.0905493821
    7    7    5    5        0.4241655737
    7    7    6    5       -0.2277372976
    7    7    7    5        0.0003609822
    7    7    6    6        0.4300260803
    7    7    7    6        0.0034481060
    7    7    7    7        0.7981159525
    8    7    3    1        0.0072131357
    8    7    8    1       -0.0101418173
    8    7    3    2        0.0242979502
    8    7    8    2       -0.0061993203
    8    7    4    3        0.0275408012
    8    7    5    3       -0.0000699532
    8    7    6    3       -0.0005265573
    8    7    7    3       -0.0166570228
    8    7    8    4       -0.0009824977
    8    7    8    5        0.0004712091
    8    7    8    6        0.0010526888
    8    7    8    7        0.0299398866
    8    8    1    1        1.0440455727
    8    8    2    1        0.0026540864
    8    8    4    1       -0.0049906789
    8    8    5    1        0.0015852516
    8    8    6    1        0.0016568122
    8    8    7    1        0.0076900008
    8    8    2    2        0.6368224069
    8    8    4    2        0.0113676404
    8    8    5    2       -0.0108482427
    8    8    6    2       -0.0127083775
    8    8    7    2       -0.0134836305
    8    8    3    3        0.6572694187
    8    8    8    3       -0.1829748867
    8    8    4    4        0.5758472455
    8    8    5    4        0.0044937580
    8    8    6    4        0.0036079755
    8    8    7    4       -0.1439380257
    8    8    5    5        0.4147517023
    8    8    6    5       -0.2061944920
    8    8    7    5       -0.0008974222
    8    8    6    6        0.4186320490
    8    8    7    6       -0.0005690806
    8    8    7    7        0.5913177724
    8    8    8    8        0.6117611721
 end_two_electron_integrals
 enrep_tce =    6.3183658123661068     
  EHF(A)             =       -75.74523910
  EHF(total)         =       -75.74523910
  Shift (HFtot-HFA)  =         0.00000000
 Cpu & wall time / sec            1.0            1.1
 T1-number-of-tasks                   15

 t1 file size   =               15
 t1 file name   = ./H2O.t1
 t1 file handle =       -998
 T2-number-of-boxes                  315

 t2 file size   =              315
 t2 file name   = ./H2O.t2
 t2 file handle =       -996
CCSD iterations
 ---------------------------------------------------------
 Iter          Residuum       Correlation     Cpu    Wall 
 ---------------------------------------------------------
NEW TASK SCHEDULING
CCSD_T1_NTS --- OK
CCSD_T2_NTS --- OK
    1   0.7621905787311  -0.3711275127513     2.1     2.7
    2   1.3589052329482   0.1131108902882     1.8     2.7
    3   2.3014059621422  -0.7066301427194     2.0     2.8
    4   3.7685900815124   0.8983318492051     1.6     2.6
    5   4.1475443295708   0.3612480768093     1.8     2.7
 MICROCYCLE DIIS UPDATE:                    5                    5
    6   0.0337657169485  -0.2237330338639     1.8     2.7
    7   0.0511956677473  -0.2224097312800     1.9     2.6
    8   0.1111415953662  -0.2354908811465     1.8     2.7
    9   0.2653649302862  -0.2008277933748     1.9     2.7
   10   0.6823491459682  -0.2489164344777     2.0     2.7
 MICROCYCLE DIIS UPDATE:                   10                    5
   11   0.0041812343005  -0.2270720992621     1.7     2.7
   12   0.0078238590348  -0.2280579871173     1.9     2.7
   13   0.0195331105107  -0.2261851386839     1.9     2.7
   14   0.0506568061952  -0.2297557624502     1.9     2.7
   15   0.1326250198871  -0.2226782028488     1.7     2.6
 MICROCYCLE DIIS UPDATE:                   15                    5
   16   0.0003436469404  -0.2274050091214     1.9     2.7
   17   0.0002813021901  -0.2274026245505     1.8     2.7
   18   0.0004730237505  -0.2274441692779     2.0     2.7
   19   0.0011587716770  -0.2273517129226     1.8     2.7
   20   0.0030208274383  -0.2275504738487     2.0     2.7
 MICROCYCLE DIIS UPDATE:                   20                    5
   21   0.0000506041952  -0.2274136440073     1.8     2.7
   22   0.0000471036859  -0.2274258219505     1.8     2.7
   23   0.0000864863078  -0.2274004667689     1.8     2.7
   24   0.0001842363753  -0.2274515355210     1.7     2.6
   25   0.0004200109953  -0.2273480861068     1.8     2.6
 MICROCYCLE DIIS UPDATE:                   25                    5
   26   0.0000048199684  -0.2274174349028     1.9     2.7
   27   0.0000047768559  -0.2274173765559     1.9     2.6
   28   0.0000095580293  -0.2274178202728     1.8     2.6
   29   0.0000244720506  -0.2274168178658     2.1     2.7
   30   0.0000646281092  -0.2274190145832     1.7     2.6
 MICROCYCLE DIIS UPDATE:                   30                    5
   31   0.0000006569353  -0.2274174728753     1.8     2.7
   32   0.0000007135012  -0.2274176846998     2.0     2.7
   33   0.0000012926972  -0.2274172624582     1.8     2.7
   34   0.0000026634718  -0.2274181171630     1.7     2.6
   35   0.0000058443285  -0.2274163675579     1.9     2.7
 MICROCYCLE DIIS UPDATE:                   35                    5
   36   0.0000000599301  -0.2274175444281     1.9     2.7
 -----------------------------------------------------------------
 Iterations converged
 CCSD correlation energy / hartree =        -0.227417544428132
 CCSD total energy / hartree       =       -75.972656647499846

 Singles contributions

 Doubles contributions
     6a   (alpha)     6a   (beta ) ---     5a   (alpha)     5a   (beta )       -0.6759118873
     6a   (alpha)     7a   (beta ) ---     4a   (alpha)     5a   (beta )       -0.0220616605
     6a   (alpha)     7a   (beta ) ---     5a   (alpha)     4a   (beta )       -0.0227315117
     7a   (alpha)     8a   (alpha) ---     3a   (alpha)     4a   (alpha)        0.0329344601
     7a   (alpha)     6a   (beta ) ---     4a   (alpha)     5a   (beta )       -0.0227315117
     7a   (alpha)     6a   (beta ) ---     5a   (alpha)     4a   (beta )       -0.0220616605
     7a   (alpha)     7a   (beta ) ---     4a   (alpha)     4a   (beta )       -0.0930679911
     7a   (alpha)     8a   (beta ) ---     4a   (alpha)     3a   (beta )       -0.0423365590
     8a   (alpha)     7a   (beta ) ---     3a   (alpha)     4a   (beta )       -0.0423365590
     8a   (alpha)     8a   (beta ) ---     3a   (alpha)     3a   (beta )       -0.0589985740
 Ground state specification:
 exp(T)|Ref>~(1+T)|Ref>
 ------- a(p)+/a(q) strings ----------

 singles norm

 doubles norm

 Reference string
  0.82849817378117341      :(1a)+ (2a)+ (3a)+ (4a)+ (5a)+ (1b)+ (2b)+ (3b)+ (4b)+ (5b)+ |0>

 Singles strings

 Doubles strings
 -0.55999176426199382      :(6a)+ (6b)+ (5b)  (5a)  (1a)+ (2a)+ (3a)+ (4a)+ (5a)+ (1b)+ (2b)+ (3b)+ (4b)+ (5b)+ |0>
 -------------------------------------

 Parallel integral file used      15 records with       0 large values


 Task  times  cpu:       68.3s     wall:       98.9s


                                NWChem Input Module
                                -------------------


 Summary of allocated global arrays
-----------------------------------
  No active global arrays


MA_summarize_allocated_blocks: starting scan ...
MA_summarize_allocated_blocks: scan completed: 0 heap blocks, 0 stack blocks
MA usage statistics:

	allocation statistics:
					      heap	     stack
					      ----	     -----
	current number of blocks	         0	         0
	maximum number of blocks	        18	        42
	current total bytes		         0	         0
	maximum total bytes		  25775960	  38234456
	maximum total K-bytes		     25776	     38235
	maximum total M-bytes		        26	        39


                                     CITATION
                                     --------
                Please cite the following reference when publishing
                           results obtained with NWChem:

          E. Apra, E. J. Bylaska, W. A. de Jong, N. Govind, K. Kowalski,
       T. P. Straatsma, M. Valiev, H. J. J. van Dam, Y. Alexeev, J. Anchell,
       V. Anisimov, F. W. Aquino, R. Atta-Fynn, J. Autschbach, N. P. Bauman,
     J. C. Becca, D. E. Bernholdt, K. Bhaskaran-Nair, S. Bogatko, P. Borowski,
         J. Boschen, J. Brabec, A. Bruner, E. Cauet, Y. Chen, G. N. Chuev,
      C. J. Cramer, J. Daily, M. J. O. Deegan, T. H. Dunning Jr., M. Dupuis,
   K. G. Dyall, G. I. Fann, S. A. Fischer, A. Fonari, H. Fruchtl, L. Gagliardi,
      J. Garza, N. Gawande, S. Ghosh, K. Glaesemann, A. W. Gotz, J. Hammond,
       V. Helms, E. D. Hermes, K. Hirao, S. Hirata, M. Jacquelin, L. Jensen,
   B. G. Johnson, H. Jonsson, R. A. Kendall, M. Klemm, R. Kobayashi, V. Konkov,
      S. Krishnamoorthy, M. Krishnan, Z. Lin, R. D. Lins, R. J. Littlefield,
      A. J. Logsdail, K. Lopata, W. Ma, A. V. Marenich, J. Martin del Campo,
   D. Mejia-Rodriguez, J. E. Moore, J. M. Mullin, T. Nakajima, D. R. Nascimento,
    J. A. Nichols, P. J. Nichols, J. Nieplocha, A. Otero-de-la-Roza, B. Palmer,
    A. Panyala, T. Pirojsirikul, B. Peng, R. Peverati, J. Pittner, L. Pollack,
   R. M. Richard, P. Sadayappan, G. C. Schatz, W. A. Shelton, D. W. Silverstein,
   D. M. A. Smith, T. A. Soares, D. Song, M. Swart, H. L. Taylor, G. S. Thomas,
            V. Tipparaju, D. G. Truhlar, K. Tsemekhman, T. Van Voorhis,
      A. Vazquez-Mayagoitia, P. Verma, O. Villa, A. Vishnu, K. D. Vogiatzis,
        D. Wang, J. H. Weare, M. J. Williamson, T. L. Windus, K. Wolinski,
        A. T. Wong, Q. Wu, C. Yang, Q. Yu, M. Zacharias, Z. Zhang, Y. Zhao,
                                and R. J. Harrison
                        "NWChem: Past, present, and future
                         J. Chem. Phys. 152, 184102 (2020)
                               doi:10.1063/5.0004997

                                      AUTHORS
                                      -------
  E. Apra, E. J. Bylaska, N. Govind, K. Kowalski, M. Valiev, D. Mejia-Rodriguez,
       A. Kunitsa, N. P. Bauman, A. Panyala, W. A. de Jong, T. P. Straatsma,
        H. J. J. van Dam, D. Wang, T. L. Windus, J. Hammond, J. Autschbach,
    K. Bhaskaran-Nair, J. Brabec, K. Lopata, S. A. Fischer, S. Krishnamoorthy,
     M. Jacquelin, W. Ma, M. Klemm, O. Villa, Y. Chen, V. Anisimov, F. Aquino,
    S. Hirata, M. T. Hackler, Eric Hermes, L. Jensen, J. E. Moore, J. C. Becca,
      V. Konjkov, T. Risthaus, M. Malagoli, A. Marenich, A. Otero-de-la-Roza,
        J. Mullin, P. Nichols, R. Peverati, J. Pittner, Y. Zhao, P.-D. Fan,
        A. Fonari, M. J. Williamson, R. J. Harrison, J. R. Rehr, M. Dupuis,
     D. Silverstein, D. M. A. Smith, J. Nieplocha, V. Tipparaju, M. Krishnan,
     B. E. Van Kuiken, A. Vazquez-Mayagoitia, M. Swart, Q. Wu, T. Van Voorhis,
     A. A. Auer, M. Nooijen, L. D. Crosby, E. Brown, G. Cisneros, G. I. Fann,
   H. Fruchtl, J. Garza, K. Hirao, R. A. Kendall, J. A. Nichols, K. Tsemekhman,
    K. Wolinski, J. Anchell, D. E. Bernholdt, P. Borowski, T. Clark, D. Clerc,
   H. Dachsel, M. J. O. Deegan, K. Dyall, D. Elwood, E. Glendening, M. Gutowski,
   A. C. Hess, J. Jaffe, B. G. Johnson, J. Ju, R. Kobayashi, R. Kutteh, Z. Lin,
   R. Littlefield, X. Long, B. Meng, T. Nakajima, S. Niu, L. Pollack, M. Rosing,
   K. Glaesemann, G. Sandrone, M. Stave, H. Taylor, G. Thomas, J. H. van Lenthe,
                               A. T. Wong, Z. Zhang.

 Total times  cpu:       72.1s     wall:      106.0s
