 argument  1 = input.nw
  NWChem w/ OpenMP: maximum threads =    1



============================== echo of input deck ==============================
 echo
 start H2O
 title "H2O"

 memory total 24 gb

 geometry units bohr
 symmetry c1
        O  0.00000000  0.00000000  0.00000000
        H  0.00000000  5.1063565  0.00000000
        H  1.72558000 -0.64860000  0.00000000
 end

 basis spherical
   * library cc-pVTZ
 end

 mcscf
   active  8
   actelec 10
   multiplicity 1
   maxiter 40
   vectors input h2o.mos
   vectors output h2o.mos
 end

 task mcscf

 scf
   vectors input h2o.mos
   vectors output h2o-trash.mos
   noscf
 end

 tce
   2eorb
   2emet 13
   ccsd
   maxiter 300
 end

 set tce:print_integrals T
 set tce:qorb 8
 set tce:qela 5
 set tce:qelb 5

# set tce:qducc T
# set tce:nactv 3
# set tce:nonhf T
# set tce:ducc_model 6

 set tce:printtol 0.02

 task tce
================================================================================


                                         
                                         


             Northwest Computational Chemistry Package (NWChem) 7.0.1
             --------------------------------------------------------


                    Environmental Molecular Sciences Laboratory
                       Pacific Northwest National Laboratory
                                Richland, WA 99352

                              Copyright (c) 1994-2020
                       Pacific Northwest National Laboratory
                            Battelle Memorial Institute

             NWChem is an open-source computational chemistry package
                        distributed under the terms of the
                      Educational Community License (ECL) 2.0
             A copy of the license is included with this distribution
                              in the LICENSE.TXT file

                                  ACKNOWLEDGMENT
                                  --------------

            This software and its documentation were developed at the
            EMSL at Pacific Northwest National Laboratory, a multiprogram
            national laboratory, operated for the U.S. Department of Energy
            by Battelle under Contract Number DE-AC05-76RL01830. Support
            for this work was provided by the Department of Energy Office
            of Biological and Environmental Research, Office of Basic
            Energy Sciences, and the Office of Advanced Scientific Computing.


           Job information
           ---------------

    hostname        = WE46210
    program         = /home/baum612/code/nwchem/bin/LINUX64/nwchem
    date            = Thu May  2 14:08:32 2024

    compiled        = Tue_Apr_30_12:43:26_2024
    source          = /home/baum612/code/nwchem
    nwchem branch   = 7.0.0
    nwchem revision = nwchem_on_git-4191-g39d87d64de
    ga revision     = 5.8.1
    use scalapack   = F
    input           = input.nw
    prefix          = H2O.
    data base       = ./H2O.db
    status          = startup
    nproc           =        1
    time left       =     -1s



           Memory information
           ------------------

    heap     =  805306362 doubles =   6144.0 Mbytes
    stack    =  805306367 doubles =   6144.0 Mbytes
    global   = 1610612736 doubles =  12288.0 Mbytes (distinct from heap & stack)
    total    = 3221225465 doubles =  24576.0 Mbytes
    verify   = yes
    hardfail = no 


           Directory information
           ---------------------

  0 permanent = .
  0 scratch   = .




                                NWChem Input Module
                                -------------------


                                        H2O
                                        ---
 Turning off AUTOSYM since
 SYMMETRY directive was detected!


          ------
          auto-z
          ------
  autoz: The atoms group into disjoint clusters
 cluster   1:    1    3
 cluster   2:    2
 Connecting clusters   1   2 via atoms    1    2 r = 2.70
  autoz: regenerating connections with new bonds
  no constraints, skipping    0.0000000000000000     
  no constraints, skipping    0.0000000000000000     


                             Geometry "geometry" -> ""
                             -------------------------

 Output coordinates in a.u. (scale by  1.000000000 to convert to a.u.)

  No.       Tag          Charge          X              Y              Z
 ---- ---------------- ---------- -------------- -------------- --------------
    1 O                    8.0000    -0.17255800    -0.44577565     0.00000000
    2 H                    1.0000    -0.17255800     4.66058085     0.00000000
    3 H                    1.0000     1.55302200    -1.09437565     0.00000000

      Atomic Mass 
      ----------- 

      O                 15.994910
      H                  1.007825


 Effective nuclear repulsion energy (a.u.)       6.0728059438

            Nuclear Dipole moment (a.u.) 
            ----------------------------
        X                 Y               Z
 ---------------- ---------------- ----------------
    -0.0000000000    -0.0000000000     0.0000000000



                                Z-matrix (autoz)
                                -------- 

 Units are Angstrom for bonds and degrees for angles

      Type          Name      I     J     K     L     M      Value
      ----------- --------  ----- ----- ----- ----- ----- ----------
    1 Stretch                  1     2                       2.70217
    2 Stretch                  1     3                       0.97551
    3 Bend                     2     1     3               110.59992


            XYZ format geometry
            -------------------
     3
 geometry
 O                    -0.09131377    -0.23589433     0.00000000
 H                    -0.09131377     2.46627335     0.00000000
 H                     0.82182391    -0.57911870     0.00000000

 ==============================================================================
                                internuclear distances
 ------------------------------------------------------------------------------
       center one      |      center two      | atomic units |       a.u.
 ------------------------------------------------------------------------------
    3 H                |   1 O                |     1.84345  |     1.84345
 ------------------------------------------------------------------------------
                         number of included internuclear distances:          1
 ==============================================================================





 Summary of "ao basis" -> "" (spherical)
 ------------------------------------------------------------------------------
       Tag                 Description            Shells   Functions and Types
 ---------------- ------------------------------  ------  ---------------------
 *                          cc-pVTZ                   on all atoms 


                      Basis "ao basis" -> "ao basis" (spherical)
                      -----
  O (Oxygen)
  ----------
            Exponent  Coefficients 
       -------------- ---------------------------------------------------------
  1 S  1.53300000E+04  0.000508
  1 S  2.29900000E+03  0.003929
  1 S  5.22400000E+02  0.020243
  1 S  1.47300000E+02  0.079181
  1 S  4.75500000E+01  0.230687
  1 S  1.67600000E+01  0.433118
  1 S  6.20700000E+00  0.350260
  1 S  6.88200000E-01 -0.008154

  2 S  1.53300000E+04 -0.000115
  2 S  2.29900000E+03 -0.000895
  2 S  5.22400000E+02 -0.004636
  2 S  1.47300000E+02 -0.018724
  2 S  4.75500000E+01 -0.058463
  2 S  1.67600000E+01 -0.136463
  2 S  6.20700000E+00 -0.175740
  2 S  6.88200000E-01  0.603418

  3 S  1.75200000E+00  1.000000

  4 S  2.38400000E-01  1.000000

  5 P  3.44600000E+01  0.015928
  5 P  7.74900000E+00  0.099740
  5 P  2.28000000E+00  0.310492

  6 P  7.15600000E-01  1.000000

  7 P  2.14000000E-01  1.000000

  8 D  2.31400000E+00  1.000000

  9 D  6.45000000E-01  1.000000

 10 F  1.42800000E+00  1.000000

  H (Hydrogen)
  ------------
            Exponent  Coefficients 
       -------------- ---------------------------------------------------------
  1 S  3.38700000E+01  0.006068
  1 S  5.09500000E+00  0.045308
  1 S  1.15900000E+00  0.202822

  2 S  3.25800000E-01  1.000000

  3 S  1.02700000E-01  1.000000

  4 P  1.40700000E+00  1.000000

  5 P  3.88000000E-01  1.000000

  6 D  1.05700000E+00  1.000000



 Summary of "ao basis" -> "ao basis" (spherical)
 ------------------------------------------------------------------------------
       Tag                 Description            Shells   Functions and Types
 ---------------- ------------------------------  ------  ---------------------
 O                          cc-pVTZ                 10       30   4s3p2d1f
 H                          cc-pVTZ                  6       14   3s2p1d



                            NWChem Direct MCSCF Module
                            --------------------------


                                        H2O


     -----------------------------------
       Basis functions:             58
       Inactive shells:              0
       Active shells:                8
       Active electrons:            10
       Symmetry:                    a       
       Multiplicity:                 1
       Orbital rotations:          400
     -----------------------------------

     -----------------------------------
       E2 extrapolation:             F
       Conjugacy:                    T
       Micro CI relax:               T
       Canonical orbitals:           T
       Maximum iterations:          40
       Converge threshold:    1.00E-04
       Conjugacy resets:            20
       Initial levelshift:        0.10
     -----------------------------------

 Loading old vectors from job with title :

H2O


   input molecular orbitals = ./h2o.mos
  output molecular orbtials = ./h2o.mos

       No. of determinants:          3136


  Starting Orbital Energies
   -20.611350    -1.307538    -0.672822    -0.549924    -0.348106    -0.223320
    -0.026116    -0.012790     0.277126     0.415140     0.635596     0.683584
     0.786038     0.808457     0.840959     0.889838     0.982803     1.155613
     1.343656     1.711835     1.720117     2.028997     2.031620     2.144002
     2.554184     2.742203     3.456753     3.460863     3.460944     3.465089
     3.465531     3.482209     3.483240     3.518461     3.742458     3.881949
     3.886266     3.897558     3.934703     4.011789     4.121761     4.392525
     4.436633     4.718886     5.105100     5.536263     5.536763     5.793158
     5.793909     6.699472     6.705317     6.804038     6.831229     6.861792
     7.026505     7.054882     7.499849    10.781469

  Orbital Symmetry Irreps
a    a    a    a    a    a    a    a    a    a    a    a    a    a    a   
a    a    a    a    a    a    a    a    a    a    a    a    a    a    a   
a    a    a    a    a    a    a    a    a    a    a    a    a    a    a   
a    a    a    a    a    a    a    a    a    a    a    a    a   

 Integral file          = ./H2O.aoints.0
 Record size in doubles =  65536        No. of integs per rec  =  43688
 Max. records in memory =     49        Max. records in file   = 250647
 No. of bits per label  =      8        No. of bits per value  =     64


 #quartets = 3.058D+04 #integrals = 5.420D+05 #direct =  0.0% #cached =100.0%




          %%%%% MacroIteration   1 %%%%%


          Number of sigma calls:       22
                       o<<<<< (aa):             0.00
                       o<<<<< (bb):             0.00
                       o<<<<< (ab):             0.03
                       o<<<<< (total)           0.04
                       o<<<<< (aa) ff           0.00
                       o<<<<< (aa) gop          0.00
                       o<<<<< (aa) dot          0.00
                       o<<<<< (ab) str          0.00
                       o<<<<< (ab) gath         0.00
                       o<<<<< (ab) dotab        0.00
                       o<<<<< (ab) scat         0.00
                       o<<<<< (ab) sync         0.00
                       o<<<<< Density           0.01
                       o<<<<< Density one       0.00
                       o<<<<< Density two       0.00
                       o<<<<< Density ab        0.01
                       o<<<<< Spin adapt        0.20
                       o<<<<< Symm adapt        0.00

                       o<<<<< (ab) max sync:      0.00

           >>>| Valence CI:            -82.041598766404
           >>>| MCSCF energy:          -75.968792822585
           >>>| Gradient norm:          0.883270657D-03
     --- Warning:    2 Hessian diagonals < 0.05 ---

                              ----- Line search ------

        step       energy         lsg     num-lsg   num-lsh   lsrat    time
      ------- ---------------- --------- --------- --------- ------- --------
       0.0000     -75.96879282 -2.06D-07  0.00D+00  0.00D+00 0.0D+00      0.8

          Number of sigma calls:       20
                       o<<<<< (aa):             0.00
                       o<<<<< (bb):             0.00
                       o<<<<< (ab):             0.04
                       o<<<<< (total)           0.05
                       o<<<<< (aa) ff           0.00
                       o<<<<< (aa) gop          0.00
                       o<<<<< (aa) dot          0.00
                       o<<<<< (ab) str          0.00
                       o<<<<< (ab) gath         0.00
                       o<<<<< (ab) dotab        0.00
                       o<<<<< (ab) scat         0.00
                       o<<<<< (ab) sync         0.00
                       o<<<<< Density           0.01
                       o<<<<< Density one       0.00
                       o<<<<< Density two       0.00
                       o<<<<< Density ab        0.01
                       o<<<<< Spin adapt        0.27
                       o<<<<< Symm adapt        0.00

                       o<<<<< (ab) max sync:      0.00
       1.0000     -75.96879294 -2.23D-08 -2.23D-08  1.84D-07 1.1D-01      1.3

          Number of sigma calls:       15
                       o<<<<< (aa):             0.00
                       o<<<<< (bb):             0.00
                       o<<<<< (ab):             0.04
                       o<<<<< (total)           0.04
                       o<<<<< (aa) ff           0.00
                       o<<<<< (aa) gop          0.00
                       o<<<<< (aa) dot          0.00
                       o<<<<< (ab) str          0.00
                       o<<<<< (ab) gath         0.00
                       o<<<<< (ab) dotab        0.00
                       o<<<<< (ab) scat         0.00
                       o<<<<< (ab) sync         0.00
                       o<<<<< Density           0.01
                       o<<<<< Density one       0.00
                       o<<<<< Density two       0.00
                       o<<<<< Density ab        0.01
                       o<<<<< Spin adapt        0.31
                       o<<<<< Symm adapt        0.00

                       o<<<<< (ab) max sync:      0.00
       1.1211     -75.96879294  3.18D-12  8.49D-13  1.84D-07 1.5D-05      1.7
     --- Orbitals canonicalized ---



          %%%%% MacroIteration   2 %%%%%


          Number of sigma calls:       21
                       o<<<<< (aa):             0.00
                       o<<<<< (bb):             0.01
                       o<<<<< (ab):             0.08
                       o<<<<< (total)           0.09
                       o<<<<< (aa) ff           0.00
                       o<<<<< (aa) gop          0.00
                       o<<<<< (aa) dot          0.00
                       o<<<<< (ab) str          0.00
                       o<<<<< (ab) gath         0.00
                       o<<<<< (ab) dotab        0.00
                       o<<<<< (ab) scat         0.00
                       o<<<<< (ab) sync         0.00
                       o<<<<< Density           0.01
                       o<<<<< Density one       0.00
                       o<<<<< Density two       0.00
                       o<<<<< Density ab        0.01
                       o<<<<< Spin adapt        0.39
                       o<<<<< Symm adapt        0.00

                       o<<<<< (ab) max sync:      0.00

           >>>| Valence CI:            -82.041598881880
           >>>| MCSCF energy:          -75.968792938060
           >>>| Gradient norm:          0.102729029D-03
     --- Warning:    5 Hessian diagonals < 0.05 ---
     --- Conjugacy reset ---

                              ----- Line search ------

        step       energy         lsg     num-lsg   num-lsh   lsrat    time
      ------- ---------------- --------- --------- --------- ------- --------
       0.0000     -75.96879294 -3.04D-09  0.00D+00  0.00D+00 0.0D+00      2.4

          Number of sigma calls:       12
                       o<<<<< (aa):             0.00
                       o<<<<< (bb):             0.00
                       o<<<<< (ab):             0.03
                       o<<<<< (total)           0.04
                       o<<<<< (aa) ff           0.00
                       o<<<<< (aa) gop          0.00
                       o<<<<< (aa) dot          0.00
                       o<<<<< (ab) str          0.00
                       o<<<<< (ab) gath         0.00
                       o<<<<< (ab) dotab        0.00
                       o<<<<< (ab) scat         0.00
                       o<<<<< (ab) sync         0.00
                       o<<<<< Density           0.01
                       o<<<<< Density one       0.00
                       o<<<<< Density two       0.00
                       o<<<<< Density ab        0.01
                       o<<<<< Spin adapt        0.16
                       o<<<<< Symm adapt        0.00

                       o<<<<< (ab) max sync:      0.00
       1.0000     -75.96879294 -4.97D-10 -5.00D-10  2.54D-09 1.6D-01      2.7

          Number of sigma calls:       10
                       o<<<<< (aa):             0.00
                       o<<<<< (bb):             0.00
                       o<<<<< (ab):             0.03
                       o<<<<< (total)           0.03
                       o<<<<< (aa) ff           0.00
                       o<<<<< (aa) gop          0.00
                       o<<<<< (aa) dot          0.00
                       o<<<<< (ab) str          0.00
                       o<<<<< (ab) gath         0.00
                       o<<<<< (ab) dotab        0.00
                       o<<<<< (ab) scat         0.00
                       o<<<<< (ab) sync         0.00
                       o<<<<< Density           0.01
                       o<<<<< Density one       0.00
                       o<<<<< Density two       0.00
                       o<<<<< Density ab        0.00
                       o<<<<< Spin adapt        0.18
                       o<<<<< Symm adapt        0.00

                       o<<<<< (ab) max sync:      0.00
       1.1952     -75.96879294  1.25D-12 -6.54D-13  2.55D-09 4.1D-04      3.0



          %%%%% MacroIteration   3 %%%%%


          Number of sigma calls:        1
                       o<<<<< (aa):             0.00
                       o<<<<< (bb):             0.00
                       o<<<<< (ab):             0.00
                       o<<<<< (total)           0.00
                       o<<<<< (aa) ff           0.00
                       o<<<<< (aa) gop          0.00
                       o<<<<< (aa) dot          0.00
                       o<<<<< (ab) str          0.00
                       o<<<<< (ab) gath         0.00
                       o<<<<< (ab) dotab        0.00
                       o<<<<< (ab) scat         0.00
                       o<<<<< (ab) sync         0.00
                       o<<<<< Density           0.00
                       o<<<<< Density one       0.00
                       o<<<<< Density two       0.00
                       o<<<<< Density ab        0.00
                       o<<<<< Spin adapt        0.00
                       o<<<<< Symm adapt        0.00

                       o<<<<< (ab) max sync:      0.00

           >>>| Valence CI:            -82.041598883701
           >>>| MCSCF energy:          -75.968792939881
           >>>| Gradient norm:          0.195785888D-04




     ==============================
            MCSCF Converged
     ==============================



          Canonical Eigenvalues

              1      
    1  -20.6113
    2   -1.3075
    3   -0.6728
    4   -0.5499
    5   -0.3475
    6   -0.2239
    7   -0.0261
    8   -0.0128
    9    0.2769
   10    0.4152
   11    0.6359
   12    0.6837
   13    0.7862
   14    0.8080
   15    0.8408
   16    0.8896
   17    0.9824
   18    1.1533
   19    1.3436
   20    1.7118
   21    1.7198
   22    2.0290
   23    2.0316
   24    2.1439
   25    2.5542
   26    2.7420
   27    3.4570
   28    3.4609
   29    3.4610
   30    3.4650
   31    3.4654
   32    3.4822
   33    3.4831
   34    3.5181
   35    3.7424
   36    3.8822
   37    3.8850
   38    3.8974
   39    3.9343
   40    4.0117
   41    4.1202
   42    4.3925
   43    4.4362
   44    4.7188
   45    5.1042
   46    5.5362
   47    5.5367
   48    5.7931
   49    5.7939
   50    6.6995
   51    6.7050
   52    6.8040
   53    6.8312
   54    6.8614
   55    7.0265
   56    7.0549
   57    7.4997
   58   10.7811


          Converged CI vector

   Index           Coefficient          Config. Occupation
         1          0.61381374          1  2  3  4  5  1  2  3  4  5
         2          0.43716088          1  2  3  4  5  1  2  3  4  6
        23          0.03490944          1  2  3  4  5  1  2  3  5  8
        27          0.02316002          1  2  3  4  5  1  2  3  6  8
         9          0.02285857          1  2  3  4  5  1  2  4  5  7
        57          0.43716088          1  2  3  4  6  1  2  3  4  5
        58         -0.46122732          1  2  3  4  6  1  2  3  4  6
        83         -0.02994708          1  2  3  4  6  1  2  3  6  8
        69         -0.02003921          1  2  3  4  6  1  2  4  6  7
      1233          0.03490944          1  2  3  5  8  1  2  3  4  5
      1255         -0.03507330          1  2  3  5  8  1  2  3  5  8
      1259         -0.02559993          1  2  3  5  8  1  2  3  6  8
      1241         -0.02227495          1  2  3  5  8  1  2  4  5  7
      1457          0.02316002          1  2  3  6  8  1  2  3  4  5
      1458         -0.02994708          1  2  3  6  8  1  2  3  4  6
      1479         -0.02559993          1  2  3  6  8  1  2  3  5  8
      1483          0.02737207          1  2  3  6  8  1  2  3  6  8
       449          0.02285857          1  2  4  5  7  1  2  3  4  5
       471         -0.02227495          1  2  4  5  7  1  2  3  5  8
       457         -0.04680357          1  2  4  5  7  1  2  4  5  7
       461         -0.03379871          1  2  4  5  7  1  2  4  6  7
       674         -0.02003921          1  2  4  6  7  1  2  3  4  6
       681         -0.03379871          1  2  4  6  7  1  2  4  5  7
       685          0.03584164          1  2  4  6  7  1  2  4  6  7

          Number of sigma calls:        1
                       o<<<<< (aa):             0.00
                       o<<<<< (bb):             0.00
                       o<<<<< (ab):             0.00
                       o<<<<< (total)           0.00
                       o<<<<< (aa) ff           0.00
                       o<<<<< (aa) gop          0.00
                       o<<<<< (aa) dot          0.00
                       o<<<<< (ab) str          0.00
                       o<<<<< (ab) gath         0.00
                       o<<<<< (ab) dotab        0.00
                       o<<<<< (ab) scat         0.00
                       o<<<<< (ab) sync         0.00
                       o<<<<< Density           0.01
                       o<<<<< Density one       0.00
                       o<<<<< Density two       0.00
                       o<<<<< Density ab        0.01
                       o<<<<< Spin adapt        0.00
                       o<<<<< Symm adapt        0.00

                       o<<<<< (ab) max sync:      0.00



          Natural orbital occupation numbers

              1      
    1    2.0000
    2    1.9989
    3    1.9854
    4    1.9748
    5    1.2160
    6    0.7841
    7    0.0263
    8    0.0144


          Number of sigma calls:       22
                       o<<<<< (aa):             0.00
                       o<<<<< (bb):             0.01
                       o<<<<< (ab):             0.07
                       o<<<<< (total)           0.08
                       o<<<<< (aa) ff           0.00
                       o<<<<< (aa) gop          0.00
                       o<<<<< (aa) dot          0.00
                       o<<<<< (ab) str          0.00
                       o<<<<< (ab) gath         0.00
                       o<<<<< (ab) dotab        0.00
                       o<<<<< (ab) scat         0.00
                       o<<<<< (ab) sync         0.00
                       o<<<<< Density           0.00
                       o<<<<< Density one       0.00
                       o<<<<< Density two       0.00
                       o<<<<< Density ab        0.00
                       o<<<<< Spin adapt        0.40
                       o<<<<< Symm adapt        0.00

                       o<<<<< (ab) max sync:      0.00


       Final MCSCF results 
       ------------------- 

       Total MCSCF energy =    -75.968792939881
            Gradient norm =      2.0D-05

    CPU time for solution =      3.7s
   Wall time for solution =      6.5s



                        Analysis of MCSCF natural orbitals
                        ----------------------------------

 Vector    1  Occ=1.999992D+00  E=-2.061134D+01  Symmetry=a
              MO Center= -9.1D-02, -2.4D-01, -5.4D-14, r^2= 1.5D-02
   Bfn.  Coefficient  Atom+Function         Bfn.  Coefficient  Atom+Function  
  ----- ------------  ---------------      ----- ------------  ---------------
     1      0.973806  1 O  s          

 Vector    2  Occ=1.998866D+00  E=-1.307542D+00  Symmetry=a
              MO Center= -2.6D-01, -1.7D-01,  5.8D-11, r^2= 4.2D-01
   Bfn.  Coefficient  Atom+Function         Bfn.  Coefficient  Atom+Function  
  ----- ------------  ---------------      ----- ------------  ---------------
     2      0.552452  1 O  s                  4      0.401553  1 O  s          
     3      0.154240  1 O  s          

 Vector    3  Occ=1.985437D+00  E=-6.728274D-01  Symmetry=a
              MO Center= -6.2D-02, -2.5D-01, -5.7D-11, r^2= 6.2D-01
   Bfn.  Coefficient  Atom+Function         Bfn.  Coefficient  Atom+Function  
  ----- ------------  ---------------      ----- ------------  ---------------
    10      0.448709  1 O  pz                13      0.378219  1 O  pz         
     7      0.369758  1 O  pz         

 Vector    4  Occ=1.974814D+00  E=-5.499323D-01  Symmetry=a
              MO Center=  3.3D-01, -3.9D-01, -1.8D-12, r^2= 5.8D-01
   Bfn.  Coefficient  Atom+Function         Bfn.  Coefficient  Atom+Function  
  ----- ------------  ---------------      ----- ------------  ---------------
     8      0.329606  1 O  px                46      0.284684  3 H  s          
     5      0.275055  1 O  px                45      0.188572  3 H  s          
    11      0.176744  1 O  px         

 Vector    5  Occ=1.215989D+00  E=-3.475277D-01  Symmetry=a
              MO Center= -7.4D-02,  1.1D+00, -3.0D-13, r^2= 2.5D+00
   Bfn.  Coefficient  Atom+Function         Bfn.  Coefficient  Atom+Function  
  ----- ------------  ---------------      ----- ------------  ---------------
    32      0.336562  2 H  s                  9      0.313547  1 O  py         
    33      0.271683  2 H  s                  6      0.244466  1 O  py         
    12      0.212013  1 O  py                31      0.161498  2 H  s          

 Vector    6  Occ=7.841430D-01  E=-2.239363D-01  Symmetry=a
              MO Center= -8.1D-02,  1.1D+00, -5.7D-13, r^2= 2.6D+00
   Bfn.  Coefficient  Atom+Function         Bfn.  Coefficient  Atom+Function  
  ----- ------------  ---------------      ----- ------------  ---------------
    32      0.375469  2 H  s                  9     -0.340804  1 O  py         
    33      0.272609  2 H  s                  6     -0.264085  1 O  py         
    12     -0.213712  1 O  py                31      0.175215  2 H  s          

 Vector    7  Occ=2.632548D-02  E=-2.611460D-02  Symmetry=a
              MO Center=  5.1D-01, -4.6D-01, -7.8D-13, r^2= 5.9D-01
   Bfn.  Coefficient  Atom+Function         Bfn.  Coefficient  Atom+Function  
  ----- ------------  ---------------      ----- ------------  ---------------
    46      0.705411  3 H  s                  5     -0.476685  1 O  px         
     8     -0.418056  1 O  px                45      0.351260  3 H  s          
     2     -0.289836  1 O  s                  4     -0.255934  1 O  s          
     6      0.175736  1 O  py                 9      0.154854  1 O  py         

 Vector    8  Occ=1.443376D-02  E=-1.278741D-02  Symmetry=a
              MO Center=  5.4D-02, -2.9D-01, -7.9D-11, r^2= 1.2D+00
   Bfn.  Coefficient  Atom+Function         Bfn.  Coefficient  Atom+Function  
  ----- ------------  ---------------      ----- ------------  ---------------
    13      0.798089  1 O  pz                 7     -0.645932  1 O  pz         
    10     -0.266015  1 O  pz                53      0.172524  3 H  pz         

 Vector    9  Occ=0.000000D+00  E= 2.769380D-01  Symmetry=a
              MO Center=  1.0D+00, -6.1D-01,  3.3D-11, r^2= 3.8D+00
   Bfn.  Coefficient  Atom+Function         Bfn.  Coefficient  Atom+Function  
  ----- ------------  ---------------      ----- ------------  ---------------
    47      1.911224  3 H  s                  4     -1.212800  1 O  s          
    11     -0.535999  1 O  px                51     -0.402112  3 H  px         
    46     -0.262927  3 H  s                 32     -0.191290  2 H  s          
    12      0.164869  1 O  py                52      0.162947  3 H  py         

 Vector   10  Occ=0.000000D+00  E= 4.152467D-01  Symmetry=a
              MO Center= -7.0D-02,  2.5D+00, -9.5D-14, r^2= 3.5D+00
   Bfn.  Coefficient  Atom+Function         Bfn.  Coefficient  Atom+Function  
  ----- ------------  ---------------      ----- ------------  ---------------
    33      1.653592  2 H  s                 32     -1.368315  2 H  s          
    47     -0.488496  3 H  s                 46      0.253989  3 H  s          
    12     -0.176271  1 O  py         

 Vector   11  Occ=0.000000D+00  E= 6.358518D-01  Symmetry=a
              MO Center= -6.0D-01,  3.9D-01, -3.5D-12, r^2= 2.5D+00
   Bfn.  Coefficient  Atom+Function         Bfn.  Coefficient  Atom+Function  
  ----- ------------  ---------------      ----- ------------  ---------------
    46      2.779790  3 H  s                  4     -2.157464  1 O  s          
    11     -2.158224  1 O  px                12      0.927127  1 O  py         
    51     -0.840086  3 H  px                37     -0.265212  2 H  px         
    52      0.265440  3 H  py                47      0.258710  3 H  s          
    38     -0.237545  2 H  py                23     -0.187789  1 O  d  2       

 Vector   12  Occ=0.000000D+00  E= 6.837087D-01  Symmetry=a
              MO Center= -1.3D-01,  1.1D+00, -8.6D-13, r^2= 3.0D+00
   Bfn.  Coefficient  Atom+Function         Bfn.  Coefficient  Atom+Function  
  ----- ------------  ---------------      ----- ------------  ---------------
     4      1.079931  1 O  s                 11      0.987847  1 O  px         
    46     -0.938298  3 H  s                 38     -0.644595  2 H  py         
    12      0.542689  1 O  py                 9     -0.504317  1 O  py         
    51      0.327786  3 H  px                47     -0.303689  3 H  s          
    52     -0.294166  3 H  py                37      0.163473  2 H  px         

 Vector   13  Occ=0.000000D+00  E= 7.862034D-01  Symmetry=a
              MO Center= -5.0D-02,  2.3D+00,  1.2D-12, r^2= 1.5D+00
   Bfn.  Coefficient  Atom+Function         Bfn.  Coefficient  Atom+Function  
  ----- ------------  ---------------      ----- ------------  ---------------
    39      1.022579  2 H  pz                53     -0.315453  3 H  pz         
    13      0.205917  1 O  pz         

 Vector   14  Occ=0.000000D+00  E= 8.079703D-01  Symmetry=a
              MO Center= -1.6D-01,  2.2D+00, -1.5D-12, r^2= 1.8D+00
   Bfn.  Coefficient  Atom+Function         Bfn.  Coefficient  Atom+Function  
  ----- ------------  ---------------      ----- ------------  ---------------
    37      1.005909  2 H  px                46      0.870457  3 H  s          
    11     -0.778086  1 O  px                 4     -0.671300  1 O  s          
    52      0.215091  3 H  py                51     -0.200064  3 H  px         
    12      0.161175  1 O  py         

 Vector   15  Occ=0.000000D+00  E= 8.408492D-01  Symmetry=a
              MO Center=  7.0D-01, -3.1D-01,  1.1D-12, r^2= 1.9D+00
   Bfn.  Coefficient  Atom+Function         Bfn.  Coefficient  Atom+Function  
  ----- ------------  ---------------      ----- ------------  ---------------
    52      1.020353  3 H  py                 4     -0.698937  1 O  s          
    46      0.470732  3 H  s                  9     -0.357528  1 O  py         
    38      0.310648  2 H  py                11     -0.285840  1 O  px         
    47      0.247958  3 H  s                  8     -0.239037  1 O  px         
    12      0.232076  1 O  py         

 Vector   16  Occ=0.000000D+00  E= 8.895718D-01  Symmetry=a
              MO Center=  4.2D-01, -2.6D-01, -2.9D-12, r^2= 2.2D+00
   Bfn.  Coefficient  Atom+Function         Bfn.  Coefficient  Atom+Function  
  ----- ------------  ---------------      ----- ------------  ---------------
    53      1.207929  3 H  pz                13     -0.930765  1 O  pz         
    39      0.278631  2 H  pz         

 Vector   17  Occ=0.000000D+00  E= 9.824349D-01  Symmetry=a
              MO Center= -8.9D-02, -1.1D-01,  1.7D-11, r^2= 3.5D+00
   Bfn.  Coefficient  Atom+Function         Bfn.  Coefficient  Atom+Function  
  ----- ------------  ---------------      ----- ------------  ---------------
     4      2.532564  1 O  s                 46     -1.614751  3 H  s          
    12     -1.354956  1 O  py                51      0.997803  3 H  px         
    47     -0.720619  3 H  s                 11      0.592743  1 O  px         
    38     -0.581199  2 H  py                 2     -0.571570  1 O  s          
     8      0.501263  1 O  px                52      0.404172  3 H  py         

 Vector   18  Occ=0.000000D+00  E= 1.153298D+00  Symmetry=a
              MO Center= -1.8D-02,  5.6D-01,  4.5D-11, r^2= 2.4D+00
   Bfn.  Coefficient  Atom+Function         Bfn.  Coefficient  Atom+Function  
  ----- ------------  ---------------      ----- ------------  ---------------
     4      3.507934  1 O  s                 46     -1.966181  3 H  s          
     2     -1.015945  1 O  s                 11      0.999889  1 O  px         
    51      0.875227  3 H  px                47     -0.672679  3 H  s          
    52     -0.620099  3 H  py                 8      0.577061  1 O  px         
    38      0.495904  2 H  py                 9     -0.423934  1 O  py         


 Wrote Lagrangian and 1- and 2-particle density matrices to ./H2O.mcpdm


     Multipole analysis of the density
     ---------------------------------

     L   x y z        total        nuclear
     -   - - -        -----        -------
     0   0 0 0     -0.000000     10.000000

     1   1 0 0      0.594870     -0.000000
     1   0 1 0     -0.208103     -0.000000
     1   0 0 1      0.000000      0.000000

     2   2 0 0     -4.423977      2.679864
     2   1 1 0     -0.569264     -1.888433
     2   1 0 1     -0.000000      0.000000
     2   0 2 0     -4.491705     24.508399
     2   0 1 1     -0.000000      0.000000
     2   0 0 2     -5.921282      0.000000


  Mulliken analysis of the total density
  --------------------------------------

    Atom       Charge   Shell Charges
 -----------   ------   -------------------------------------------------------
    1 O    8     8.23   1.95  1.06  0.25  0.64  1.22  1.95  1.15  0.00  0.01  0.00
    2 H    1     1.00   0.17  0.48  0.34 -0.00  0.00  0.00
    3 H    1     0.77   0.25  0.40  0.03  0.02  0.06  0.01

    Mulliken analysis of the active space density
    ---------------------------------------------

    Atom       Charge   Shell Charges
 -----------   ------   -------------------------------------------------------
    1 O    8     8.23   1.95  1.06  0.25  0.64  1.22  1.95  1.15  0.00  0.01  0.00
    2 H    1     1.00   0.17  0.48  0.34 -0.00  0.00  0.00
    3 H    1     0.77   0.25  0.40  0.03  0.02  0.06  0.01

 Parallel integral file used      13 records with       0 large values


 Task  times  cpu:        3.7s     wall:        6.5s


                                NWChem Input Module
                                -------------------


                                 NWChem SCF Module
                                 -----------------


                                        H2O



  ao basis        = "ao basis"
  functions       =    58
  atoms           =     3
  closed shells   =     5
  open shells     =     0
  charge          =   0.00
  wavefunction    = RHF 
  input vectors   = ./h2o.mos
  output vectors  = ./h2o-trash.mos
  use symmetry    = F
  symmetry adapt  = F


 Summary of "ao basis" -> "ao basis" (spherical)
 ------------------------------------------------------------------------------
       Tag                 Description            Shells   Functions and Types
 ---------------- ------------------------------  ------  ---------------------
 O                          cc-pVTZ                 10       30   4s3p2d1f
 H                          cc-pVTZ                  6       14   3s2p1d



 Forming initial guess at       6.5s


 Loading old vectors from job with title :

H2O


 Starting SCF solution at       6.5s



 ----------------------------------------------
         Quadratically convergent ROHF

 Convergence threshold     :          1.000E-04
 Maximum no. of iterations :           30
 Final Fock-matrix accuracy:          1.000E-07
 ----------------------------------------------


 Integral file          = ./H2O.aoints.0
 Record size in doubles =  65536        No. of integs per rec  =  43688
 Max. records in memory =     49        Max. records in file   = 250683
 No. of bits per label  =      8        No. of bits per value  =     64


 #quartets = 2.955D+04 #integrals = 5.244D+05 #direct =  0.0% #cached =100.0%



       Final RHF  results 
       ------------------ 

         Total SCF energy =    -75.702865650484
      One-electron energy =   -116.597996329502
      Two-electron energy =     34.822324735198
 Nuclear repulsion energy =      6.072805943820

        Time for solution =      0.1s


             Final eigenvalues
             -----------------

              1      
    1  -20.6113
    2   -1.3075
    3   -0.6728
    4   -0.5499
    5   -0.3475
    6   -0.2239
    7   -0.0261
    8   -0.0128
    9    0.2769
   10    0.4152
   11    0.6359
   12    0.6837
   13    0.7862
   14    0.8080
   15    0.8408

                       ROHF Final Molecular Orbital Analysis
                       -------------------------------------

 Vector    2  Occ=2.000000D+00  E=-1.307542D+00
              MO Center= -2.6D-01, -1.7D-01,  5.8D-11, r^2= 4.2D-01
   Bfn.  Coefficient  Atom+Function         Bfn.  Coefficient  Atom+Function  
  ----- ------------  ---------------      ----- ------------  ---------------
     2      0.552452  1 O  s                  4      0.401553  1 O  s          
     3      0.154240  1 O  s          

 Vector    3  Occ=2.000000D+00  E=-6.728274D-01
              MO Center= -6.2D-02, -2.5D-01, -5.7D-11, r^2= 6.2D-01
   Bfn.  Coefficient  Atom+Function         Bfn.  Coefficient  Atom+Function  
  ----- ------------  ---------------      ----- ------------  ---------------
    10      0.448709  1 O  pz                13      0.378219  1 O  pz         
     7      0.369758  1 O  pz         

 Vector    4  Occ=2.000000D+00  E=-5.499323D-01
              MO Center=  3.3D-01, -3.9D-01, -1.8D-12, r^2= 5.8D-01
   Bfn.  Coefficient  Atom+Function         Bfn.  Coefficient  Atom+Function  
  ----- ------------  ---------------      ----- ------------  ---------------
     8      0.329606  1 O  px                46      0.284684  3 H  s          
     5      0.275055  1 O  px                45      0.188572  3 H  s          
    11      0.176744  1 O  px         

 Vector    5  Occ=2.000000D+00  E=-3.475277D-01
              MO Center= -7.4D-02,  1.1D+00, -3.0D-13, r^2= 2.5D+00
   Bfn.  Coefficient  Atom+Function         Bfn.  Coefficient  Atom+Function  
  ----- ------------  ---------------      ----- ------------  ---------------
    32      0.336562  2 H  s                  9      0.313547  1 O  py         
    33      0.271683  2 H  s                  6      0.244466  1 O  py         
    12      0.212013  1 O  py                31      0.161498  2 H  s          

 Vector    6  Occ=0.000000D+00  E=-2.239363D-01
              MO Center= -8.1D-02,  1.1D+00, -5.7D-13, r^2= 2.6D+00
   Bfn.  Coefficient  Atom+Function         Bfn.  Coefficient  Atom+Function  
  ----- ------------  ---------------      ----- ------------  ---------------
    32      0.375469  2 H  s                  9     -0.340804  1 O  py         
    33      0.272609  2 H  s                  6     -0.264085  1 O  py         
    12     -0.213712  1 O  py                31      0.175215  2 H  s          

 Vector    7  Occ=0.000000D+00  E=-2.611460D-02
              MO Center=  5.1D-01, -4.6D-01, -7.8D-13, r^2= 5.9D-01
   Bfn.  Coefficient  Atom+Function         Bfn.  Coefficient  Atom+Function  
  ----- ------------  ---------------      ----- ------------  ---------------
    46      0.705411  3 H  s                  5     -0.476685  1 O  px         
     8     -0.418056  1 O  px                45      0.351260  3 H  s          
     2     -0.289836  1 O  s                  4     -0.255934  1 O  s          
     6      0.175736  1 O  py                 9      0.154854  1 O  py         

 Vector    8  Occ=0.000000D+00  E=-1.278741D-02
              MO Center=  5.4D-02, -2.9D-01, -7.9D-11, r^2= 1.2D+00
   Bfn.  Coefficient  Atom+Function         Bfn.  Coefficient  Atom+Function  
  ----- ------------  ---------------      ----- ------------  ---------------
    13      0.798089  1 O  pz                 7     -0.645932  1 O  pz         
    10     -0.266015  1 O  pz                53      0.172524  3 H  pz         

 Vector    9  Occ=0.000000D+00  E= 2.769380D-01
              MO Center=  1.0D+00, -6.1D-01,  3.3D-11, r^2= 3.8D+00
   Bfn.  Coefficient  Atom+Function         Bfn.  Coefficient  Atom+Function  
  ----- ------------  ---------------      ----- ------------  ---------------
    47      1.911224  3 H  s                  4     -1.212800  1 O  s          
    11     -0.535999  1 O  px                51     -0.402112  3 H  px         
    46     -0.262927  3 H  s                 32     -0.191290  2 H  s          
    12      0.164869  1 O  py                52      0.162947  3 H  py         

 Vector   10  Occ=0.000000D+00  E= 4.152467D-01
              MO Center= -7.0D-02,  2.5D+00, -9.5D-14, r^2= 3.5D+00
   Bfn.  Coefficient  Atom+Function         Bfn.  Coefficient  Atom+Function  
  ----- ------------  ---------------      ----- ------------  ---------------
    33      1.653592  2 H  s                 32     -1.368315  2 H  s          
    47     -0.488496  3 H  s                 46      0.253989  3 H  s          
    12     -0.176271  1 O  py         

 Vector   11  Occ=0.000000D+00  E= 6.358518D-01
              MO Center= -6.0D-01,  3.9D-01, -3.5D-12, r^2= 2.5D+00
   Bfn.  Coefficient  Atom+Function         Bfn.  Coefficient  Atom+Function  
  ----- ------------  ---------------      ----- ------------  ---------------
    46      2.779790  3 H  s                  4     -2.157464  1 O  s          
    11     -2.158224  1 O  px                12      0.927127  1 O  py         
    51     -0.840086  3 H  px                37     -0.265212  2 H  px         
    52      0.265440  3 H  py                47      0.258710  3 H  s          
    38     -0.237545  2 H  py                23     -0.187789  1 O  d  2       

 Vector   12  Occ=0.000000D+00  E= 6.837087D-01
              MO Center= -1.3D-01,  1.1D+00, -8.6D-13, r^2= 3.0D+00
   Bfn.  Coefficient  Atom+Function         Bfn.  Coefficient  Atom+Function  
  ----- ------------  ---------------      ----- ------------  ---------------
     4      1.079931  1 O  s                 11      0.987847  1 O  px         
    46     -0.938298  3 H  s                 38     -0.644595  2 H  py         
    12      0.542689  1 O  py                 9     -0.504317  1 O  py         
    51      0.327786  3 H  px                47     -0.303689  3 H  s          
    52     -0.294166  3 H  py                37      0.163473  2 H  px         

 Vector   13  Occ=0.000000D+00  E= 7.862034D-01
              MO Center= -5.0D-02,  2.3D+00,  1.2D-12, r^2= 1.5D+00
   Bfn.  Coefficient  Atom+Function         Bfn.  Coefficient  Atom+Function  
  ----- ------------  ---------------      ----- ------------  ---------------
    39      1.022579  2 H  pz                53     -0.315453  3 H  pz         
    13      0.205917  1 O  pz         

 Vector   14  Occ=0.000000D+00  E= 8.079703D-01
              MO Center= -1.6D-01,  2.2D+00, -1.5D-12, r^2= 1.8D+00
   Bfn.  Coefficient  Atom+Function         Bfn.  Coefficient  Atom+Function  
  ----- ------------  ---------------      ----- ------------  ---------------
    37      1.005909  2 H  px                46      0.870457  3 H  s          
    11     -0.778086  1 O  px                 4     -0.671300  1 O  s          
    52      0.215091  3 H  py                51     -0.200064  3 H  px         
    12      0.161175  1 O  py         

 Vector   15  Occ=0.000000D+00  E= 8.408492D-01
              MO Center=  7.0D-01, -3.1D-01,  1.1D-12, r^2= 1.9D+00
   Bfn.  Coefficient  Atom+Function         Bfn.  Coefficient  Atom+Function  
  ----- ------------  ---------------      ----- ------------  ---------------
    52      1.020353  3 H  py                 4     -0.698937  1 O  s          
    46      0.470732  3 H  s                  9     -0.357528  1 O  py         
    38      0.310648  2 H  py                11     -0.285840  1 O  px         
    47      0.247958  3 H  s                  8     -0.239037  1 O  px         
    12      0.232076  1 O  py         


 center of mass
 --------------
 x =  -0.07599894 y =  -0.19633097 z =   0.00000000

 moments of inertia (a.u.)
 ------------------
          25.582221635315           1.561773940679           0.000000000000
           1.561773940679           2.833002082974           0.000000000000
           0.000000000000           0.000000000000          28.415223718289

  Mulliken analysis of the total density
  --------------------------------------

    Atom       Charge   Shell Charges
 -----------   ------   -------------------------------------------------------
    1 O    8     8.25   1.95  1.06  0.25  0.64  1.20  1.95  1.18  0.00  0.01  0.00
    2 H    1     0.99   0.16  0.46  0.36 -0.00  0.00  0.00
    3 H    1     0.76   0.25  0.40  0.03  0.02  0.06  0.01

       Multipole analysis of the density wrt the origin
       ------------------------------------------------

     L   x y z        total         open         nuclear
     -   - - -        -----         ----         -------
     0   0 0 0     -0.000000      0.000000     10.000000

     1   1 0 0      0.598326      0.000000     -0.000000
     1   0 1 0     -0.121932      0.000000     -0.000000
     1   0 0 1      0.000000      0.000000      0.000000

     2   2 0 0     -4.463661      0.000000      2.679864
     2   1 1 0     -0.645952      0.000000     -1.888433
     2   1 0 1     -0.000000      0.000000      0.000000
     2   0 2 0     -3.760324      0.000000     24.508399
     2   0 1 1     -0.000000      0.000000      0.000000
     2   0 0 2     -5.961214      0.000000      0.000000


 Parallel integral file used      13 records with       0 large values

 ------------------------------------
     Number of active orbitals      8
     Number of active alpha electrons      5
     Number of active beta electrons       5
 ------------------------------------
                   NWChem Extensible Many-Electron Theory Module
                   ---------------------------------------------

              ======================================================
                   This portion of the program was automatically
                  generated by a Tensor Contraction Engine (TCE).
                  The development of this portion of the program
                 and TCE was supported by US Department of Energy,
                Office of Science, Office of Basic Energy Science.
                      TCE is a product of Battelle and PNNL.
              Please cite: S.Hirata, J.Phys.Chem.A 107, 9887 (2003).
              ======================================================

                                        H2O


            General Information
            -------------------
      Number of processors :     1
         Wavefunction type : Restricted Hartree-Fock
          No. of electrons :    10
           Alpha electrons :     5
            Beta electrons :     5
           No. of orbitals :   116
            Alpha orbitals :    58
             Beta orbitals :    58
        Alpha frozen cores :     0
         Beta frozen cores :     0
     Alpha frozen virtuals :    50
      Beta frozen virtuals :    50
         Spin multiplicity : singlet 
    Number of AO functions :    58
       Number of AO shells :    22
        Use of symmetry is : off
      Symmetry adaption is : off
         Schwarz screening : 0.10D-09

          Correlation Information
          -----------------------
          Calculation type : Coupled-cluster singles & doubles                           
   Perturbative correction : none                                                        
            Max iterations :      300
        Residual threshold : 0.10D-06
     T(0) DIIS level shift : 0.00D+00
     L(0) DIIS level shift : 0.00D+00
     T(1) DIIS level shift : 0.00D+00
     L(1) DIIS level shift : 0.00D+00
     T(R) DIIS level shift : 0.00D+00
     T(I) DIIS level shift : 0.00D+00
   CC-T/L Amplitude update :  5-th order DIIS
                I/O scheme : Global Array Library
        L-threshold :  0.10D-06
        EOM-threshold :  0.10D-06
 no EOMCCSD initial starts read in
 TCE RESTART OPTIONS
 READ_INT:   F
 WRITE_INT:  F
 READ_TA:    F
 WRITE_TA:   F
 READ_XA:    F
 WRITE_XA:   F
 READ_IN3:   F
 WRITE_IN3:  F
 SLICE:      F
 D4D5:       F
 quantumc:   T
 qrotation:  F
 pwtce:      F
 qducc:      F
 nacto:                         0
 nrotv:                         0
 nrot:                          0

            Memory Information
            ------------------
          Available GA space size is    1610609372 doubles
          Available MA space size is    1610609772 doubles

 Maximum block size supplied by input
 Maximum block size         1 doubles

 tile_dim =      1

 Block   Spin    Irrep     Size     Offset   Alpha
 -------------------------------------------------
   1    alpha     a      1 doubles       0       1
   2    alpha     a      1 doubles       1       2
   3    alpha     a      1 doubles       2       3
   4    alpha     a      1 doubles       3       4
   5    alpha     a      1 doubles       4       5
   6    beta      a      1 doubles       5       1
   7    beta      a      1 doubles       6       2
   8    beta      a      1 doubles       7       3
   9    beta      a      1 doubles       8       4
  10    beta      a      1 doubles       9       5
  11    alpha     a      1 doubles      10      11
  12    alpha     a      1 doubles      11      12
  13    alpha     a      1 doubles      12      13
  14    beta      a      1 doubles      13      11
  15    beta      a      1 doubles      14      12
  16    beta      a      1 doubles      15      13

 Global array virtual files algorithm will be used

 Parallel file system coherency ......... OK

 Integral file          = ./H2O.aoints.0
 Record size in doubles =  65536        No. of integs per rec  =  43688
 Max. records in memory =     49        Max. records in file   = 250683
 No. of bits per label  =      8        No. of bits per value  =     64


 #quartets = 3.130D+04 #integrals = 5.935D+05 #direct =  0.0% #cached =100.0%


 Fock matrix recomputed
 1-e file size   =               64
 1-e file name   = ./H2O.f1
 Cpu & wall time / sec            0.1            0.1
 4-electron integrals stored in orbital form

 v2    file size   =              666
 4-index algorithm nr.  13 is used
 imaxsize =       30
 imaxsize ichop =        0
 begin_one_electron_integrals
    1    1       -32.6285918159
    2    1        -1.0876784816
    4    1         0.1407781935
    5    1        -0.0188046234
    6    1        -0.0212151001
    7    1        -0.2122319999
    1    2        -1.0876784816
    2    2        -7.6253428405
    4    2        -0.2625504699
    5    2         0.0605133019
    6    2         0.0962066963
    7    2         0.1270567847
    3    3        -6.8276780262
    8    3         2.1125973663
    1    4         0.1407781935
    2    4        -0.2625504699
    4    4        -6.6039040496
    5    4        -0.0324635137
    6    4        -0.0247502194
    7    4         1.9073295670
    1    5        -0.0188046234
    2    5         0.0605133019
    4    5        -0.0324635137
    5    5        -4.6134814324
    6    5         2.3976370606
    7    5         0.0117006874
    1    6        -0.0212151001
    2    6         0.0962066963
    4    6        -0.0247502194
    5    6         2.3976370606
    6    6        -4.6458344581
    7    6         0.0096102655
    1    7        -0.2122319999
    2    7         0.1270567847
    4    7         1.9073295670
    5    7         0.0117006874
    6    7         0.0096102655
    7    7        -5.8741764272
    3    8         2.1125973663
    8    8        -5.2112004075
 end_one_electron_integrals
 begin_two_electron_integrals
    1    1    1    1        4.8310402006
    2    1    1    1       -0.2138933533
    2    1    2    1        0.0282891441
    3    1    3    1        0.0281590388
    4    1    1    1       -0.0900311502
    4    1    2    1        0.0022362562
    4    1    4    1        0.0210948017
    4    1    2    2       -0.0137379166
    4    1    3    3       -0.0025863318
    5    1    1    1        0.0109603039
    5    1    2    1       -0.0010166281
    5    1    4    1        0.0000417333
    5    1    5    1        0.0143778687
    5    1    2    2        0.0006286375
    5    1    4    2        0.0002746326
    5    1    3    3        0.0008972834
    5    1    4    4        0.0008991421
    6    1    1    1        0.0132127805
    6    1    2    1       -0.0010961732
    6    1    4    1       -0.0000854426
    6    1    5    1       -0.0151608449
    6    1    6    1        0.0161860253
    6    1    2    2        0.0009371882
    6    1    4    2        0.0002496322
    6    1    5    2       -0.0137197533
    6    1    3    3        0.0009689514
    6    1    4    4        0.0009611566
    6    1    5    4       -0.0027200476
    6    1    5    5        0.0004694756
    7    1    1    1        0.1722759480
    7    1    2    1       -0.0071992644
    7    1    4    1       -0.0327108547
    7    1    5    1        0.0001229347
    7    1    6    1        0.0002365036
    7    1    7    1        0.0514315159
    7    1    2    2        0.0221366835
    7    1    4    2       -0.0257177021
    7    1    5    2       -0.0006780767
    7    1    6    2       -0.0007478137
    7    1    3    3        0.0039079915
    7    1    4    4       -0.0143143333
    7    1    5    4        0.0003438753
    7    1    6    4        0.0004192082
    7    1    5    5        0.0024517924
    7    1    6    5       -0.0017609997
    7    1    6    6        0.0025533583
    8    1    3    1       -0.0395877511
    8    1    8    1        0.0561713356
    8    1    3    2       -0.0387699046
    8    1    4    3       -0.0075462492
    8    1    5    3        0.0006277183
    8    1    6    3        0.0008289701
    8    1    7    3        0.0104797559
    2    2    1    1        1.0802996976
    2    2    2    1        0.0101281275
    2    2    2    2        0.8287427097
    3    2    3    1        0.0249729777
    3    2    3    2        0.1449834184
    4    2    1    1       -0.0062667072
    4    2    2    1       -0.0037014331
    4    2    4    1        0.0160327419
    4    2    2    2       -0.0575231110
    4    2    4    2        0.0910430806
    4    2    3    3        0.0106238421
    5    2    1    1       -0.0171603132
    5    2    2    1       -0.0002584343
    5    2    4    1        0.0004651710
    5    2    5    1        0.0127045890
    5    2    2    2       -0.0113776545
    5    2    4    2        0.0015264835
    5    2    5    2        0.0750979349
    5    2    3    3       -0.0090198812
    5    2    4    4       -0.0069302537
    6    2    1    1       -0.0174412015
    6    2    2    1       -0.0001804336
    6    2    4    1        0.0004432352
    6    2    5    1       -0.0132737522
    6    2    6    1        0.0142317102
    6    2    2    2       -0.0105658070
    6    2    4    2        0.0017544314
    6    2    5    2       -0.0749161846
    6    2    6    2        0.0760225865
    6    2    3    3       -0.0093676363
    6    2    4    4       -0.0066772634
    6    2    5    4       -0.0114001139
    6    2    5    5       -0.0099244979
    7    2    1    1       -0.0262375183
    7    2    2    1        0.0043214447
    7    2    4    1       -0.0158761961
    7    2    5    1       -0.0002609474
    7    2    6    1       -0.0003533057
    7    2    7    1        0.0237796613
    7    2    2    2        0.0289233368
    7    2    4    2       -0.0613790075
    7    2    5    2       -0.0006932347
    7    2    6    2       -0.0014720740
    7    2    7    2        0.0537868638
    7    2    3    3       -0.0198371245
    7    2    4    4       -0.0362245102
    7    2    5    4        0.0007863156
    7    2    6    4        0.0010286209
    7    2    5    5       -0.0103479008
    7    2    6    5        0.0125124318
    7    2    6    6       -0.0114812676
    8    2    3    1       -0.0206720386
    8    2    8    1        0.0276290729
    8    2    3    2       -0.0546146101
    8    2    8    2        0.0455138068
    8    2    4    3       -0.0027475783
    8    2    5    3        0.0011638737
    8    2    6    3        0.0016176957
    8    2    7    3        0.0115251037
    3    3    1    1        1.0502923060
    3    3    2    1        0.0079990415
    3    3    2    2        0.7426374500
    3    3    3    3        0.7620081831
    4    3    3    1        0.0050737916
    4    3    3    2        0.0232628975
    4    3    4    3        0.0366358060
    5    3    3    1       -0.0004427353
    5    3    3    2       -0.0021419289
    5    3    4    3       -0.0000281946
    5    3    5    3        0.0189872632
    6    3    3    1       -0.0005712539
    6    3    3    2       -0.0026834146
    6    3    4    3       -0.0001832030
    6    3    5    3       -0.0190719670
    6    3    6    3        0.0194874654
    7    3    3    1       -0.0077891945
    7    3    3    2       -0.0226057558
    7    3    4    3       -0.0207459235
    7    3    5    3        0.0003007216
    7    3    6    3        0.0003568384
    7    3    7    3        0.0253582657
    8    3    1    1       -0.5374964614
    8    3    2    1       -0.0052719984
    8    3    4    1        0.0043942645
    8    3    5    1       -0.0006735187
    8    3    6    1       -0.0006621212
    8    3    7    1       -0.0077893753
    8    3    2    2       -0.2195244855
    8    3    4    2        0.0113107119
    8    3    5    2        0.0042730647
    8    3    6    2        0.0050051002
    8    3    7    2        0.0057774425
    8    3    3    3       -0.2121232424
    8    3    8    3        0.1663608679
    8    3    4    4       -0.1385523252
    8    3    5    4       -0.0014518074
    8    3    6    4       -0.0010047095
    8    3    7    4        0.1250996308
    8    3    5    5       -0.0998414189
    8    3    6    5        0.0977181219
    8    3    7    5        0.0010054498
    8    3    6    6       -0.1067580515
    8    3    7    6        0.0010192178
    8    3    7    7       -0.1636124464
    4    4    1    1        0.9084673213
    4    4    2    1        0.0046414151
    4    4    4    1        0.0080189698
    4    4    2    2        0.6365877806
    4    4    4    2        0.0803836171
    4    4    3    3        0.6386100698
    4    4    4    4        0.7751074284
    5    4    1    1        0.0063336308
    5    4    2    1        0.0001342807
    5    4    4    1       -0.0002334663
    5    4    5    1        0.0025620709
    5    4    2    2        0.0043429107
    5    4    4    2       -0.0007750789
    5    4    5    2        0.0108301275
    5    4    3    3        0.0034795258
    5    4    4    4        0.0036368845
    5    4    5    4        0.0181494378
    6    4    1    1        0.0051210173
    6    4    2    1        0.0001561963
    6    4    4    1       -0.0003034633
    6    4    5    1       -0.0026908603
    6    4    6    1        0.0028819786
    6    4    2    2        0.0042036413
    6    4    4    2       -0.0007717905
    6    4    5    2       -0.0121423512
    6    4    6    2        0.0121731126
    6    4    3    3        0.0030127042
    6    4    4    4        0.0036461812
    6    4    5    4       -0.0183371925
    6    4    6    4        0.0189276346
    6    4    5    5       -0.0014119802
    7    4    1    1       -0.4715528294
    7    4    2    1       -0.0026420559
    7    4    4    1       -0.0038094194
    7    4    5    1       -0.0006660541
    7    4    6    1       -0.0006708253
    7    4    7    1        0.0022101415
    7    4    2    2       -0.2123301396
    7    4    4    2        0.0155138034
    7    4    5    2        0.0037122337
    7    4    6    2        0.0044343008
    7    4    7    2        0.0160416875
    7    4    3    3       -0.1828010351
    7    4    4    4       -0.0935925899
    7    4    5    4       -0.0008527679
    7    4    6    4        0.0000612958
    7    4    7    4        0.2136586944
    7    4    5    5       -0.1010427029
    7    4    6    5        0.0911870611
    7    4    6    6       -0.1068662972
    8    4    3    1       -0.0021953859
    8    4    8    1        0.0018643118
    8    4    3    2        0.0078922770
    8    4    8    2        0.0028338917
    8    4    4    3        0.0000225178
    8    4    5    3       -0.0000910617
    8    4    6    3       -0.0000072138
    8    4    7    3        0.0150901963
    8    4    8    4        0.0198925663
    5    5    1    1        0.6344821147
    5    5    2    1        0.0040615710
    5    5    4    1       -0.0014865508
    5    5    5    1        0.0001476654
    5    5    2    2        0.4793981290
    5    5    4    2        0.0012542466
    5    5    5    2        0.0051456099
    5    5    3    3        0.4467218694
    5    5    4    4        0.4152873444
    5    5    5    4        0.0015345162
    5    5    5    5        0.4479254740
    6    5    1    1       -0.4494235615
    6    5    2    1       -0.0043106676
    6    5    4    1        0.0012900652
    6    5    5    1       -0.0004638748
    6    5    6    1       -0.0008183431
    6    5    2    2       -0.2819986897
    6    5    4    2       -0.0082441009
    6    5    5    2        0.0142885243
    6    5    6    2       -0.0015379248
    6    5    3    3       -0.2574921780
    6    5    4    4       -0.2354958231
    6    5    5    4       -0.0023157779
    6    5    6    4       -0.0041810880
    6    5    5    5       -0.0480675828
    6    5    6    5        0.2585003742
    7    5    1    1       -0.0029547616
    7    5    2    1       -0.0001078228
    7    5    4    1        0.0002482100
    7    5    5    1       -0.0043677364
    7    5    6    1        0.0046571648
    7    5    7    1       -0.0004173483
    7    5    2    2       -0.0020347409
    7    5    4    2        0.0015401687
    7    5    5    2       -0.0148128332
    7    5    6    2        0.0152761530
    7    5    7    2       -0.0010310345
    7    5    3    3       -0.0008284290
    7    5    4    4        0.0004722247
    7    5    5    4       -0.0115579743
    7    5    6    4        0.0121491789
    7    5    7    4        0.0018068552
    7    5    5    5       -0.0015025018
    7    5    6    5       -0.0006494579
    7    5    7    5        0.0141291071
    7    5    6    6       -0.0019014557
    8    5    3    1        0.0003799130
    8    5    8    1       -0.0005879754
    8    5    3    2        0.0021447837
    8    5    8    2       -0.0006688758
    8    5    4    3        0.0001921317
    8    5    5    3       -0.0058593166
    8    5    6    3        0.0064631306
    8    5    7    3       -0.0000958052
    8    5    8    4        0.0003273305
    8    5    8    5        0.0088074949
    6    6    1    1        0.6574403274
    6    6    2    1        0.0044031233
    6    6    4    1       -0.0015659379
    6    6    5    1        0.0010349876
    6    6    6    1       -0.0003895080
    6    6    2    2        0.4849512783
    6    6    4    2        0.0023569319
    6    6    5    2        0.0070284285
    6    6    6    2       -0.0124585283
    6    6    3    3        0.4519988792
    6    6    4    4        0.4196930316
    6    6    5    4        0.0012887484
    6    6    6    4       -0.0011667412
    6    6    5    5        0.4578410852
    6    6    6    5       -0.0435605043
    6    6    6    6        0.4704993899
    7    6    1    1       -0.0030581829
    7    6    2    1       -0.0001781289
    7    6    4    1        0.0003977497
    7    6    5    1        0.0046146432
    7    6    6    1       -0.0049030689
    7    6    7    1       -0.0006374689
    7    6    2    2       -0.0030339576
    7    6    4    2        0.0022448650
    7    6    5    2        0.0155533300
    7    6    6    2       -0.0158733028
    7    6    7    2       -0.0013518117
    7    6    3    3       -0.0009418436
    7    6    4    4        0.0013498870
    7    6    5    4        0.0123250360
    7    6    6    4       -0.0129452027
    7    6    7    4        0.0021980753
    7    6    5    5       -0.0004924580
    7    6    6    5        0.0007028102
    7    6    7    5       -0.0146235756
    7    6    6    6       -0.0000853549
    7    6    7    6        0.0154218017
    8    6    3    1        0.0005655652
    8    6    8    1       -0.0008790661
    8    6    3    2        0.0029193610
    8    6    8    2       -0.0010656844
    8    6    4    3        0.0004003105
    8    6    5    3        0.0068940918
    8    6    6    3       -0.0074826365
    8    6    7    3       -0.0002474414
    8    6    8    4        0.0003388531
    8    6    8    5       -0.0085422984
    8    6    8    6        0.0088762821
    7    7    1    1        1.0486566256
    7    7    2    1        0.0030589879
    7    7    4    1        0.0077977334
    7    7    5    1        0.0012054169
    7    7    6    1        0.0012508558
    7    7    7    1       -0.0127702632
    7    7    2    2        0.6311912641
    7    7    4    2        0.0705457344
    7    7    5    2       -0.0071915949
    7    7    6    2       -0.0071427699
    7    7    7    2       -0.0351012278
    7    7    3    3        0.6361835925
    7    7    4    4        0.7586232382
    7    7    5    4        0.0039071018
    7    7    6    4        0.0039826201
    7    7    7    4       -0.0887563783
    7    7    5    5        0.4119058119
    7    7    6    5       -0.2382138802
    7    7    7    5        0.0005763211
    7    7    6    6        0.4178135801
    7    7    7    6        0.0015942040
    7    7    7    7        0.7995976832
    8    7    3    1        0.0070751415
    8    7    8    1       -0.0100966906
    8    7    3    2        0.0241814066
    8    7    8    2       -0.0060580803
    8    7    4    3        0.0275196762
    8    7    5    3       -0.0000796060
    8    7    6    3       -0.0002344145
    8    7    7    3       -0.0166043934
    8    7    8    4       -0.0006373685
    8    7    8    5        0.0003416890
    8    7    8    6        0.0005437193
    8    7    8    7        0.0299769465
    8    8    1    1        1.0476972173
    8    8    2    1        0.0046743097
    8    8    4    1       -0.0051775269
    8    8    5    1        0.0010506469
    8    8    6    1        0.0010312754
    8    8    7    1        0.0079087171
    8    8    2    2        0.6383602078
    8    8    4    2        0.0114890519
    8    8    5    2       -0.0072180096
    8    8    6    2       -0.0076986170
    8    8    7    2       -0.0136332727
    8    8    3    3        0.6588624063
    8    8    8    3       -0.1835100025
    8    8    4    4        0.5777915205
    8    8    5    4        0.0031288327
    8    8    6    4        0.0027764077
    8    8    7    4       -0.1435287093
    8    8    5    5        0.4018985070
    8    8    6    5       -0.2181965434
    8    8    7    5       -0.0006397954
    8    8    6    6        0.4062108517
    8    8    7    6       -0.0005242300
    8    8    7    7        0.5935503623
    8    8    8    8        0.6146666521
 end_two_electron_integrals
 enrep_tce =    6.0728059438198869     
  EHF(A)             =       -75.70286565
  EHF(total)         =       -75.70286565
  Shift (HFtot-HFA)  =        -0.00000000
 Cpu & wall time / sec            1.0            1.0
 T1-number-of-tasks                   15

 t1 file size   =               15
 t1 file name   = ./H2O.t1
 t1 file handle =       -998
 T2-number-of-boxes                  315

 t2 file size   =              315
 t2 file name   = ./H2O.t2
 t2 file handle =       -996
CCSD iterations
 ---------------------------------------------------------
 Iter          Residuum       Correlation     Cpu    Wall 
 ---------------------------------------------------------
NEW TASK SCHEDULING
CCSD_T1_NTS --- OK
CCSD_T2_NTS --- OK
    1   0.9226961773944  -0.4834235308243     1.8     2.6
    2   1.4746557589252   0.5410843892968     1.8     2.7
    3   1.9738350146380  -0.2648521530279     1.7     2.6
    4   2.4010715823352   0.3681082010797     1.8     2.6
    5   3.0301492437302  -0.1021652444991     2.0     2.7
 MICROCYCLE DIIS UPDATE:                    5                    5
    6   0.3006416761096  -0.1295437521191     1.8     2.6
    7   0.6033071323999  -0.3843502429644     1.8     2.7
    8   0.9209294882675   0.2048396232274     1.9     2.6
    9   1.5452272676304  -0.4882744238615     1.9     2.6
   10   2.4546241970715   0.5379448485626     1.8     2.7
 MICROCYCLE DIIS UPDATE:                   10                    5
   11   0.1693827613792  -0.1739863389536     1.9     2.6
   12   0.4682616185416  -0.3484381015404     2.1     2.6
   13   0.6468895498237   0.8158217151812     1.8     2.6
   14 121.8479249864290   4.2897737120358     1.9     2.6
   15******************8798.1059454240767     1.7     2.7
 MICROCYCLE DIIS UPDATE:                   15                    5
   16   0.1119907578402  -0.2069079697902     2.0     2.6
   17   0.2808484763864  -0.3323058186169     1.7     2.6
   18   0.4070251203295   0.2520503833770     2.1     2.6
   19   0.5330243859657  -0.0056707869352     1.7     2.7
   20   0.8215199605546   0.8546405306266     1.7     2.7
 MICROCYCLE DIIS UPDATE:                   20                    5
   21   0.0876692813753  -0.2207949809855     2.1     2.6
   22   0.2328585868203  -0.3201406155572     1.8     2.7
   23   0.3647652608995   0.1807986536435     1.9     2.6
   24   0.4898825324283   0.0581448313118     2.0     2.6
   25   0.8381060872154   1.0566267542566     1.8     2.6
 MICROCYCLE DIIS UPDATE:                   25                    5
   26   0.0675171754913  -0.2318807948751     1.9     2.6
   27   0.1786308935637  -0.3102408646516     1.7     2.7
   28   0.3088736629624   0.0569449882674     1.9     2.6
   29   0.4661250532080   0.1664587470689     2.0     2.6
   30   0.6431646742454   0.4653348810026     1.7     2.6
 MICROCYCLE DIIS UPDATE:                   30                    5
   31   0.0472165265999  -0.2437464895297     1.8     2.6
   32   0.1014517240536  -0.2972661761513     1.7     2.6
   33   0.2210281370941  -0.1548002685597     1.6     2.7
   34   0.6332298579809  -0.2280910071204     2.1     2.8
   35   1.5191249391973   1.7676850252570     1.8     2.6
 MICROCYCLE DIIS UPDATE:                   35                    5
   36   0.0305935780951  -0.2521819538054     1.8     2.7
   37   0.0652177800822  -0.2863048452340     2.0     2.6
   38   0.1523480683168  -0.2062562417693     1.8     2.6
   39   0.4489958799430  -0.3304198113398     1.9     2.6
   40   0.6879314990789   0.8959366672131     1.8     2.6
 MICROCYCLE DIIS UPDATE:                   40                    5
   41   0.0130451412402  -0.2603524213899     1.8     2.6
   42   0.0253548829003  -0.2736077843571     1.8     2.6
   43   0.0621107440195  -0.2434446579495     1.8     2.6
   44   0.1765875878245  -0.3079335719027     1.7     2.6
   45   0.3244031861571   0.0466386434776     1.7     2.6
 MICROCYCLE DIIS UPDATE:                   45                    5
   46   0.0054936170412  -0.2674380449288     2.1     2.6
   47   0.0103488464892  -0.2614263073619     1.7     2.6
   48   0.0295003117005  -0.2740916943931     2.0     2.6
   49   0.0802225667722  -0.2267050152929     1.9     2.7
   50   0.2989800286717  -0.2469775728498     1.6     2.6
 MICROCYCLE DIIS UPDATE:                   50                    5
   51   0.0012305232235  -0.2648792552830     1.8     2.7
   52   0.0016753753737  -0.2657624658751     1.9     2.7
   53   0.0043271896485  -0.2638623645614     1.9     2.7
   54   0.0134783789238  -0.2691317021518     2.1     2.7
   55   0.0413387019660  -0.2485291383916     1.9     2.7
 MICROCYCLE DIIS UPDATE:                   55                    5
   56   0.0003807769058  -0.2652037577420     1.9     2.7
   57   0.0005620216486  -0.2653784782719     1.9     2.7
   58   0.0014159454480  -0.2648008726117     1.7     2.6
   59   0.0041207806333  -0.2665583919159     1.9     2.7
   60   0.0124398697406  -0.2609161852919     1.8     2.6
 MICROCYCLE DIIS UPDATE:                   60                    5
   61   0.0000724021637  -0.2652266322247     1.6     2.7
   62   0.0000990021728  -0.2652706566487     1.6     2.6
   63   0.0002779000667  -0.2651547658298     1.9     2.7
   64   0.0008453420391  -0.2655058823423     1.8     2.7
   65   0.0026637546277  -0.2643893697821     1.8     2.7
 MICROCYCLE DIIS UPDATE:                   65                    5
   66   0.0000086161283  -0.2652413942591     2.0     2.7
   67   0.0000086386792  -0.2652399048228     2.0     2.7
   68   0.0000141204082  -0.2652420380749     1.9     2.6
   69   0.0000316433608  -0.2652409190515     1.8     2.6
   70   0.0000877145309  -0.2652317209431     1.6     2.6
 MICROCYCLE DIIS UPDATE:                   70                    5
   71   0.0000009874570  -0.2652407324339     1.9     2.6
   72   0.0000014788291  -0.2652412590069     1.7     2.6
   73   0.0000037914879  -0.2652397216096     1.9     2.6
   74   0.0000106680048  -0.2652442911740     1.9     2.6
   75   0.0000316654559  -0.2652305707840     1.9     2.6
 MICROCYCLE DIIS UPDATE:                   75                    5
   76   0.0000000784616  -0.2652408756024     1.8     2.6
 -----------------------------------------------------------------
 Iterations converged
 CCSD correlation energy / hartree =        -0.265240875602400
 CCSD total energy / hartree       =       -75.968106526086132

 Singles contributions

 Doubles contributions
     6a   (alpha)     6a   (beta ) ---     5a   (alpha)     5a   (beta )       -0.8001359602
     6a   (alpha)     7a   (beta ) ---     4a   (alpha)     5a   (beta )       -0.0237776076
     7a   (alpha)     8a   (alpha) ---     3a   (alpha)     4a   (alpha)        0.0333983645
     7a   (alpha)     6a   (beta ) ---     5a   (alpha)     4a   (beta )       -0.0237776076
     7a   (alpha)     7a   (beta ) ---     4a   (alpha)     4a   (beta )       -0.0936750574
     7a   (alpha)     8a   (beta ) ---     4a   (alpha)     3a   (beta )       -0.0427265113
     8a   (alpha)     7a   (beta ) ---     3a   (alpha)     4a   (beta )       -0.0427265113
     8a   (alpha)     8a   (beta ) ---     3a   (alpha)     3a   (beta )       -0.0594199073
 Ground state specification:
 exp(T)|Ref>~(1+T)|Ref>
 ------- a(p)+/a(q) strings ----------

 singles norm

 doubles norm

 Reference string
  0.78081702138265519      :(1a)+ (2a)+ (3a)+ (4a)+ (5a)+ (1b)+ (2b)+ (3b)+ (4b)+ (5b)+ |0>

 Singles strings

 Doubles strings
 -0.62475977712967279      :(6a)+ (6b)+ (5b)  (5a)  (1a)+ (2a)+ (3a)+ (4a)+ (5a)+ (1b)+ (2b)+ (3b)+ (4b)+ (5b)+ |0>
 -------------------------------------

 Parallel integral file used      14 records with       0 large values


 Task  times  cpu:      141.8s     wall:      204.7s


                                NWChem Input Module
                                -------------------


 Summary of allocated global arrays
-----------------------------------
  No active global arrays


MA_summarize_allocated_blocks: starting scan ...
MA_summarize_allocated_blocks: scan completed: 0 heap blocks, 0 stack blocks
MA usage statistics:

	allocation statistics:
					      heap	     stack
					      ----	     -----
	current number of blocks	         0	         0
	maximum number of blocks	        18	        42
	current total bytes		         0	         0
	maximum total bytes		  25775960	  38234456
	maximum total K-bytes		     25776	     38235
	maximum total M-bytes		        26	        39


                                     CITATION
                                     --------
                Please cite the following reference when publishing
                           results obtained with NWChem:

          E. Apra, E. J. Bylaska, W. A. de Jong, N. Govind, K. Kowalski,
       T. P. Straatsma, M. Valiev, H. J. J. van Dam, Y. Alexeev, J. Anchell,
       V. Anisimov, F. W. Aquino, R. Atta-Fynn, J. Autschbach, N. P. Bauman,
     J. C. Becca, D. E. Bernholdt, K. Bhaskaran-Nair, S. Bogatko, P. Borowski,
         J. Boschen, J. Brabec, A. Bruner, E. Cauet, Y. Chen, G. N. Chuev,
      C. J. Cramer, J. Daily, M. J. O. Deegan, T. H. Dunning Jr., M. Dupuis,
   K. G. Dyall, G. I. Fann, S. A. Fischer, A. Fonari, H. Fruchtl, L. Gagliardi,
      J. Garza, N. Gawande, S. Ghosh, K. Glaesemann, A. W. Gotz, J. Hammond,
       V. Helms, E. D. Hermes, K. Hirao, S. Hirata, M. Jacquelin, L. Jensen,
   B. G. Johnson, H. Jonsson, R. A. Kendall, M. Klemm, R. Kobayashi, V. Konkov,
      S. Krishnamoorthy, M. Krishnan, Z. Lin, R. D. Lins, R. J. Littlefield,
      A. J. Logsdail, K. Lopata, W. Ma, A. V. Marenich, J. Martin del Campo,
   D. Mejia-Rodriguez, J. E. Moore, J. M. Mullin, T. Nakajima, D. R. Nascimento,
    J. A. Nichols, P. J. Nichols, J. Nieplocha, A. Otero-de-la-Roza, B. Palmer,
    A. Panyala, T. Pirojsirikul, B. Peng, R. Peverati, J. Pittner, L. Pollack,
   R. M. Richard, P. Sadayappan, G. C. Schatz, W. A. Shelton, D. W. Silverstein,
   D. M. A. Smith, T. A. Soares, D. Song, M. Swart, H. L. Taylor, G. S. Thomas,
            V. Tipparaju, D. G. Truhlar, K. Tsemekhman, T. Van Voorhis,
      A. Vazquez-Mayagoitia, P. Verma, O. Villa, A. Vishnu, K. D. Vogiatzis,
        D. Wang, J. H. Weare, M. J. Williamson, T. L. Windus, K. Wolinski,
        A. T. Wong, Q. Wu, C. Yang, Q. Yu, M. Zacharias, Z. Zhang, Y. Zhao,
                                and R. J. Harrison
                        "NWChem: Past, present, and future
                         J. Chem. Phys. 152, 184102 (2020)
                               doi:10.1063/5.0004997

                                      AUTHORS
                                      -------
  E. Apra, E. J. Bylaska, N. Govind, K. Kowalski, M. Valiev, D. Mejia-Rodriguez,
       A. Kunitsa, N. P. Bauman, A. Panyala, W. A. de Jong, T. P. Straatsma,
        H. J. J. van Dam, D. Wang, T. L. Windus, J. Hammond, J. Autschbach,
    K. Bhaskaran-Nair, J. Brabec, K. Lopata, S. A. Fischer, S. Krishnamoorthy,
     M. Jacquelin, W. Ma, M. Klemm, O. Villa, Y. Chen, V. Anisimov, F. Aquino,
    S. Hirata, M. T. Hackler, Eric Hermes, L. Jensen, J. E. Moore, J. C. Becca,
      V. Konjkov, T. Risthaus, M. Malagoli, A. Marenich, A. Otero-de-la-Roza,
        J. Mullin, P. Nichols, R. Peverati, J. Pittner, Y. Zhao, P.-D. Fan,
        A. Fonari, M. J. Williamson, R. J. Harrison, J. R. Rehr, M. Dupuis,
     D. Silverstein, D. M. A. Smith, J. Nieplocha, V. Tipparaju, M. Krishnan,
     B. E. Van Kuiken, A. Vazquez-Mayagoitia, M. Swart, Q. Wu, T. Van Voorhis,
     A. A. Auer, M. Nooijen, L. D. Crosby, E. Brown, G. Cisneros, G. I. Fann,
   H. Fruchtl, J. Garza, K. Hirao, R. A. Kendall, J. A. Nichols, K. Tsemekhman,
    K. Wolinski, J. Anchell, D. E. Bernholdt, P. Borowski, T. Clark, D. Clerc,
   H. Dachsel, M. J. O. Deegan, K. Dyall, D. Elwood, E. Glendening, M. Gutowski,
   A. C. Hess, J. Jaffe, B. G. Johnson, J. Ju, R. Kobayashi, R. Kutteh, Z. Lin,
   R. Littlefield, X. Long, B. Meng, T. Nakajima, S. Niu, L. Pollack, M. Rosing,
   K. Glaesemann, G. Sandrone, M. Stave, H. Taylor, G. Thomas, J. H. van Lenthe,
                               A. T. Wong, Z. Zhang.

 Total times  cpu:      145.5s     wall:      211.2s
