 argument  1 = input.nw
  NWChem w/ OpenMP: maximum threads =    1



============================== echo of input deck ==============================
 echo
 start H2O
 title "H2O"

 memory total 24 gb

 geometry units bohr
 symmetry c1
        O  0.00000000  0.00000000  0.00000000
        H  0.00000000  5.346005  0.00000000
        H  1.72558000 -0.64860000  0.00000000
 end

 basis spherical
   * library cc-pVTZ
 end

 mcscf
   active  8
   actelec 10
   multiplicity 1
   maxiter 40
   vectors input h2o.mos
   vectors output h2o.mos
 end

 task mcscf

 scf
   vectors input h2o.mos
   vectors output h2o-trash.mos
   noscf
 end

 tce
   2eorb
   2emet 13
   ccsd
   maxiter 300
 end

 set tce:print_integrals T
 set tce:qorb 8
 set tce:qela 5
 set tce:qelb 5

# set tce:qducc T
# set tce:nactv 3
# set tce:nonhf T
# set tce:ducc_model 6

 set tce:printtol 0.02

 task tce
================================================================================


                                         
                                         


             Northwest Computational Chemistry Package (NWChem) 7.0.1
             --------------------------------------------------------


                    Environmental Molecular Sciences Laboratory
                       Pacific Northwest National Laboratory
                                Richland, WA 99352

                              Copyright (c) 1994-2020
                       Pacific Northwest National Laboratory
                            Battelle Memorial Institute

             NWChem is an open-source computational chemistry package
                        distributed under the terms of the
                      Educational Community License (ECL) 2.0
             A copy of the license is included with this distribution
                              in the LICENSE.TXT file

                                  ACKNOWLEDGMENT
                                  --------------

            This software and its documentation were developed at the
            EMSL at Pacific Northwest National Laboratory, a multiprogram
            national laboratory, operated for the U.S. Department of Energy
            by Battelle under Contract Number DE-AC05-76RL01830. Support
            for this work was provided by the Department of Energy Office
            of Biological and Environmental Research, Office of Basic
            Energy Sciences, and the Office of Advanced Scientific Computing.


           Job information
           ---------------

    hostname        = WE46210
    program         = /home/baum612/code/nwchem/bin/LINUX64/nwchem
    date            = Wed Mar  6 10:30:58 2024

    compiled        = Fri_Feb_16_11:09:52_2024
    source          = /home/baum612/code/nwchem
    nwchem branch   = 7.0.0
    nwchem revision = nwchem_on_git-4191-g39d87d64de
    ga revision     = 5.8.1
    use scalapack   = F
    input           = input.nw
    prefix          = H2O.
    data base       = ./H2O.db
    status          = startup
    nproc           =        1
    time left       =     -1s



           Memory information
           ------------------

    heap     =  805306366 doubles =   6144.0 Mbytes
    stack    =  805306363 doubles =   6144.0 Mbytes
    global   = 1610612736 doubles =  12288.0 Mbytes (distinct from heap & stack)
    total    = 3221225465 doubles =  24576.0 Mbytes
    verify   = yes
    hardfail = no 


           Directory information
           ---------------------

  0 permanent = .
  0 scratch   = .




                                NWChem Input Module
                                -------------------


                                        H2O
                                        ---
 Turning off AUTOSYM since
 SYMMETRY directive was detected!


          ------
          auto-z
          ------
  autoz: The atoms group into disjoint clusters
 cluster   1:    1    3
 cluster   2:    2
 Connecting clusters   1   2 via atoms    1    2 r = 2.83
  autoz: regenerating connections with new bonds
  no constraints, skipping    0.0000000000000000     
  no constraints, skipping    0.0000000000000000     


                             Geometry "geometry" -> ""
                             -------------------------

 Output coordinates in a.u. (scale by  1.000000000 to convert to a.u.)

  No.       Tag          Charge          X              Y              Z
 ---- ---------------- ---------- -------------- -------------- --------------
    1 O                    8.0000    -0.17255800    -0.46974050     0.00000000
    2 H                    1.0000    -0.17255800     4.87626450     0.00000000
    3 H                    1.0000     1.55302200    -1.11834050     0.00000000

      Atomic Mass 
      ----------- 

      O                 15.994910
      H                  1.007825


 Effective nuclear repulsion energy (a.u.)       5.9964406914

            Nuclear Dipole moment (a.u.) 
            ----------------------------
        X                 Y               Z
 ---------------- ---------------- ----------------
    -0.0000000000    -0.0000000000     0.0000000000



                                Z-matrix (autoz)
                                -------- 

 Units are Angstrom for bonds and degrees for angles

      Type          Name      I     J     K     L     M      Value
      ----------- --------  ----- ----- ----- ----- ----- ----------
    1 Stretch                  1     2                       2.82898
    2 Stretch                  1     3                       0.97551
    3 Bend                     2     1     3               110.59992


            XYZ format geometry
            -------------------
     3
 geometry
 O                    -0.09131377    -0.24857599     0.00000000
 H                    -0.09131377     2.58040823     0.00000000
 H                     0.82182391    -0.59180035     0.00000000

 ==============================================================================
                                internuclear distances
 ------------------------------------------------------------------------------
       center one      |      center two      | atomic units |       a.u.
 ------------------------------------------------------------------------------
    3 H                |   1 O                |     1.84345  |     1.84345
 ------------------------------------------------------------------------------
                         number of included internuclear distances:          1
 ==============================================================================





 Summary of "ao basis" -> "" (spherical)
 ------------------------------------------------------------------------------
       Tag                 Description            Shells   Functions and Types
 ---------------- ------------------------------  ------  ---------------------
 *                          cc-pVTZ                   on all atoms 


                      Basis "ao basis" -> "ao basis" (spherical)
                      -----
  O (Oxygen)
  ----------
            Exponent  Coefficients 
       -------------- ---------------------------------------------------------
  1 S  1.53300000E+04  0.000508
  1 S  2.29900000E+03  0.003929
  1 S  5.22400000E+02  0.020243
  1 S  1.47300000E+02  0.079181
  1 S  4.75500000E+01  0.230687
  1 S  1.67600000E+01  0.433118
  1 S  6.20700000E+00  0.350260
  1 S  6.88200000E-01 -0.008154

  2 S  1.53300000E+04 -0.000115
  2 S  2.29900000E+03 -0.000895
  2 S  5.22400000E+02 -0.004636
  2 S  1.47300000E+02 -0.018724
  2 S  4.75500000E+01 -0.058463
  2 S  1.67600000E+01 -0.136463
  2 S  6.20700000E+00 -0.175740
  2 S  6.88200000E-01  0.603418

  3 S  1.75200000E+00  1.000000

  4 S  2.38400000E-01  1.000000

  5 P  3.44600000E+01  0.015928
  5 P  7.74900000E+00  0.099740
  5 P  2.28000000E+00  0.310492

  6 P  7.15600000E-01  1.000000

  7 P  2.14000000E-01  1.000000

  8 D  2.31400000E+00  1.000000

  9 D  6.45000000E-01  1.000000

 10 F  1.42800000E+00  1.000000

  H (Hydrogen)
  ------------
            Exponent  Coefficients 
       -------------- ---------------------------------------------------------
  1 S  3.38700000E+01  0.006068
  1 S  5.09500000E+00  0.045308
  1 S  1.15900000E+00  0.202822

  2 S  3.25800000E-01  1.000000

  3 S  1.02700000E-01  1.000000

  4 P  1.40700000E+00  1.000000

  5 P  3.88000000E-01  1.000000

  6 D  1.05700000E+00  1.000000



 Summary of "ao basis" -> "ao basis" (spherical)
 ------------------------------------------------------------------------------
       Tag                 Description            Shells   Functions and Types
 ---------------- ------------------------------  ------  ---------------------
 O                          cc-pVTZ                 10       30   4s3p2d1f
 H                          cc-pVTZ                  6       14   3s2p1d



                            NWChem Direct MCSCF Module
                            --------------------------


                                        H2O


     -----------------------------------
       Basis functions:             58
       Inactive shells:              0
       Active shells:                8
       Active electrons:            10
       Symmetry:                    a       
       Multiplicity:                 1
       Orbital rotations:          400
     -----------------------------------

     -----------------------------------
       E2 extrapolation:             F
       Conjugacy:                    T
       Micro CI relax:               T
       Canonical orbitals:           T
       Maximum iterations:          40
       Converge threshold:    1.00E-04
       Conjugacy resets:            20
       Initial levelshift:        0.10
     -----------------------------------

 Loading old vectors from job with title :

H2O


   input molecular orbitals = ./h2o.mos
  output molecular orbtials = ./h2o.mos

       No. of determinants:          3136


  Starting Orbital Energies
   -20.611212    -1.307555    -0.672837    -0.549966    -0.343379    -0.228365
    -0.026107    -0.012771     0.275596     0.415648     0.637865     0.685986
     0.787372     0.804297     0.840039     0.887691     0.978161     1.136435
     1.343092     1.711573     1.717374     2.028691     2.031325     2.143207
     2.554343     2.740894     3.458629     3.461287     3.461378     3.464062
     3.464849     3.482043     3.482331     3.516140     3.741999     3.877240
     3.884233     3.896419     3.931347     4.011352     4.107256     4.392349
     4.433196     4.718118     5.098097     5.536121     5.536380     5.793041
     5.793624     6.699337     6.703352     6.803976     6.831195     6.858610
     7.026268     7.054755     7.498829    10.778727

  Orbital Symmetry Irreps
a    a    a    a    a    a    a    a    a    a    a    a    a    a    a   
a    a    a    a    a    a    a    a    a    a    a    a    a    a    a   
a    a    a    a    a    a    a    a    a    a    a    a    a    a    a   
a    a    a    a    a    a    a    a    a    a    a    a    a   

 Integral file          = ./H2O.aoints.0
 Record size in doubles =  65536        No. of integs per rec  =  43688
 Max. records in memory =     49        Max. records in file   = 248747
 No. of bits per label  =      8        No. of bits per value  =     64


 #quartets = 2.955D+04 #integrals = 5.164D+05 #direct =  0.0% #cached =100.0%




          %%%%% MacroIteration   1 %%%%%


          Number of sigma calls:       22
                       o<<<<< (aa):             0.00
                       o<<<<< (bb):             0.01
                       o<<<<< (ab):             0.09
                       o<<<<< (total)           0.10
                       o<<<<< (aa) ff           0.00
                       o<<<<< (aa) gop          0.00
                       o<<<<< (aa) dot          0.00
                       o<<<<< (ab) str          0.00
                       o<<<<< (ab) gath         0.00
                       o<<<<< (ab) dotab        0.00
                       o<<<<< (ab) scat         0.00
                       o<<<<< (ab) sync         0.00
                       o<<<<< Density           0.01
                       o<<<<< Density one       0.00
                       o<<<<< Density two       0.00
                       o<<<<< Density ab        0.01
                       o<<<<< Spin adapt        0.61
                       o<<<<< Symm adapt        0.00

                       o<<<<< (ab) max sync:      0.00

           >>>| Valence CI:            -81.964406872950
           >>>| MCSCF energy:          -75.967966181564
           >>>| Gradient norm:          0.363950808D-02
     --- Warning:    2 Hessian diagonals < 0.05 ---

                              ----- Line search ------

        step       energy         lsg     num-lsg   num-lsh   lsrat    time
      ------- ---------------- --------- --------- --------- ------- --------
       0.0000     -75.96796618 -3.52D-06  0.00D+00  0.00D+00 0.0D+00      1.4

          Number of sigma calls:       23
                       o<<<<< (aa):             0.00
                       o<<<<< (bb):             0.00
                       o<<<<< (ab):             0.10
                       o<<<<< (total)           0.11
                       o<<<<< (aa) ff           0.00
                       o<<<<< (aa) gop          0.00
                       o<<<<< (aa) dot          0.00
                       o<<<<< (ab) str          0.00
                       o<<<<< (ab) gath         0.00
                       o<<<<< (ab) dotab        0.00
                       o<<<<< (ab) scat         0.00
                       o<<<<< (ab) sync         0.00
                       o<<<<< Density           0.00
                       o<<<<< Density one       0.00
                       o<<<<< Density two       0.00
                       o<<<<< Density ab        0.00
                       o<<<<< Spin adapt        0.41
                       o<<<<< Symm adapt        0.00

                       o<<<<< (ab) max sync:      0.00
       1.0000     -75.96796811 -3.46D-07 -3.46D-07  3.17D-06 9.8D-02      2.1
     --- Orbitals canonicalized ---



          %%%%% MacroIteration   2 %%%%%


          Number of sigma calls:       21
                       o<<<<< (aa):             0.00
                       o<<<<< (bb):             0.00
                       o<<<<< (ab):             0.08
                       o<<<<< (total)           0.08
                       o<<<<< (aa) ff           0.00
                       o<<<<< (aa) gop          0.00
                       o<<<<< (aa) dot          0.00
                       o<<<<< (ab) str          0.00
                       o<<<<< (ab) gath         0.00
                       o<<<<< (ab) dotab        0.00
                       o<<<<< (ab) scat         0.00
                       o<<<<< (ab) sync         0.00
                       o<<<<< Density           0.01
                       o<<<<< Density one       0.00
                       o<<<<< Density two       0.00
                       o<<<<< Density ab        0.01
                       o<<<<< Spin adapt        0.48
                       o<<<<< Symm adapt        0.00

                       o<<<<< (ab) max sync:      0.00

           >>>| Valence CI:            -81.964408804299
           >>>| MCSCF energy:          -75.967968112913
           >>>| Gradient norm:          0.456000921D-03
     --- Warning:    5 Hessian diagonals < 0.05 ---
     --- Conjugacy reset ---

                              ----- Line search ------

        step       energy         lsg     num-lsg   num-lsh   lsrat    time
      ------- ---------------- --------- --------- --------- ------- --------
       0.0000     -75.96796811 -6.99D-08  0.00D+00  0.00D+00 0.0D+00      2.9

          Number of sigma calls:       16
                       o<<<<< (aa):             0.00
                       o<<<<< (bb):             0.00
                       o<<<<< (ab):             0.05
                       o<<<<< (total)           0.05
                       o<<<<< (aa) ff           0.00
                       o<<<<< (aa) gop          0.00
                       o<<<<< (aa) dot          0.00
                       o<<<<< (ab) str          0.00
                       o<<<<< (ab) gath         0.00
                       o<<<<< (ab) dotab        0.00
                       o<<<<< (ab) scat         0.00
                       o<<<<< (ab) sync         0.00
                       o<<<<< Density           0.01
                       o<<<<< Density one       0.01
                       o<<<<< Density two       0.00
                       o<<<<< Density ab        0.01
                       o<<<<< Spin adapt        0.32
                       o<<<<< Symm adapt        0.00

                       o<<<<< (ab) max sync:      0.00
       1.0000     -75.96796816 -1.57D-08 -1.57D-08  5.42D-08 2.2D-01      3.4

          Number of sigma calls:       13
                       o<<<<< (aa):             0.00
                       o<<<<< (bb):             0.00
                       o<<<<< (ab):             0.05
                       o<<<<< (total)           0.06
                       o<<<<< (aa) ff           0.00
                       o<<<<< (aa) gop          0.00
                       o<<<<< (aa) dot          0.00
                       o<<<<< (ab) str          0.00
                       o<<<<< (ab) gath         0.00
                       o<<<<< (ab) dotab        0.00
                       o<<<<< (ab) scat         0.00
                       o<<<<< (ab) sync         0.00
                       o<<<<< Density           0.01
                       o<<<<< Density one       0.01
                       o<<<<< Density two       0.00
                       o<<<<< Density ab        0.01
                       o<<<<< Spin adapt        0.24
                       o<<<<< Symm adapt        0.00

                       o<<<<< (ab) max sync:      0.00
       1.2903     -75.96796816  8.14D-12  8.91D-12  5.42D-08 1.2D-04      3.8



          %%%%% MacroIteration   3 %%%%%


          Number of sigma calls:        1
                       o<<<<< (aa):             0.00
                       o<<<<< (bb):             0.00
                       o<<<<< (ab):             0.01
                       o<<<<< (total)           0.01
                       o<<<<< (aa) ff           0.00
                       o<<<<< (aa) gop          0.00
                       o<<<<< (aa) dot          0.00
                       o<<<<< (ab) str          0.00
                       o<<<<< (ab) gath         0.00
                       o<<<<< (ab) dotab        0.00
                       o<<<<< (ab) scat         0.00
                       o<<<<< (ab) sync         0.00
                       o<<<<< Density           0.01
                       o<<<<< Density one       0.00
                       o<<<<< Density two       0.00
                       o<<<<< Density ab        0.01
                       o<<<<< Spin adapt        0.00
                       o<<<<< Symm adapt        0.00

                       o<<<<< (ab) max sync:      0.00

           >>>| Valence CI:            -81.964408849420
           >>>| MCSCF energy:          -75.967968158033
           >>>| Gradient norm:          0.466336964D-04




     ==============================
            MCSCF Converged
     ==============================



          Canonical Eigenvalues

              1      
    1  -20.6111
    2   -1.3075
    3   -0.6728
    4   -0.5500
    5   -0.3411
    6   -0.2308
    7   -0.0261
    8   -0.0128
    9    0.2748
   10    0.4155
   11    0.6391
   12    0.6885
   13    0.7880
   14    0.8023
   15    0.8395
   16    0.8867
   17    0.9742
   18    1.1275
   19    1.3428
   20    1.7115
   21    1.7162
   22    2.0285
   23    2.0312
   24    2.1429
   25    2.5545
   26    2.7404
   27    3.4594
   28    3.4615
   29    3.4616
   30    3.4636
   31    3.4645
   32    3.4820
   33    3.4821
   34    3.5151
   35    3.7417
   36    3.8741
   37    3.8854
   38    3.8959
   39    3.9297
   40    4.0112
   41    4.0989
   42    4.3923
   43    4.4315
   44    4.7177
   45    5.0949
   46    5.5361
   47    5.5363
   48    5.7930
   49    5.7935
   50    6.6993
   51    6.7026
   52    6.8040
   53    6.8312
   54    6.8572
   55    7.0261
   56    7.0547
   57    7.4984
   58   10.7775


          Converged CI vector

   Index           Coefficient          Config. Occupation
         1         -0.55337251          1  2  3  4  5  1  2  3  4  5
         2         -0.49065237          1  2  3  4  5  1  2  3  4  6
        23         -0.03130540          1  2  3  4  5  1  2  3  5  8
        27         -0.02708602          1  2  3  4  5  1  2  3  6  8
         9         -0.02051993          1  2  3  4  5  1  2  4  5  7
        57         -0.49065237          1  2  3  4  6  1  2  3  4  5
        58          0.42922562          1  2  3  4  6  1  2  3  4  6
        83          0.02755955          1  2  3  4  6  1  2  3  6  8
      1233         -0.03130540          1  2  3  5  8  1  2  3  4  5
      1255          0.03169298          1  2  3  5  8  1  2  3  5  8
      1259          0.02867149          1  2  3  5  8  1  2  3  6  8
      1241          0.02013786          1  2  3  5  8  1  2  4  5  7
      1457         -0.02708602          1  2  3  6  8  1  2  3  4  5
      1458          0.02755955          1  2  3  6  8  1  2  3  4  6
      1479          0.02867149          1  2  3  6  8  1  2  3  5  8
      1483         -0.02541020          1  2  3  6  8  1  2  3  6  8
       449         -0.02051993          1  2  4  5  7  1  2  3  4  5
       471          0.02013786          1  2  4  5  7  1  2  3  5  8
       457          0.04225934          1  2  4  5  7  1  2  4  5  7
       461          0.03789349          1  2  4  5  7  1  2  4  6  7
       681          0.03789349          1  2  4  6  7  1  2  4  5  7
       685         -0.03332917          1  2  4  6  7  1  2  4  6  7

          Number of sigma calls:        1
                       o<<<<< (aa):             0.00
                       o<<<<< (bb):             0.00
                       o<<<<< (ab):             0.00
                       o<<<<< (total)           0.00
                       o<<<<< (aa) ff           0.00
                       o<<<<< (aa) gop          0.00
                       o<<<<< (aa) dot          0.00
                       o<<<<< (ab) str          0.00
                       o<<<<< (ab) gath         0.00
                       o<<<<< (ab) dotab        0.00
                       o<<<<< (ab) scat         0.00
                       o<<<<< (ab) sync         0.00
                       o<<<<< Density           0.01
                       o<<<<< Density one       0.00
                       o<<<<< Density two       0.00
                       o<<<<< Density ab        0.01
                       o<<<<< Spin adapt        0.00
                       o<<<<< Symm adapt        0.00

                       o<<<<< (ab) max sync:      0.00



          Natural orbital occupation numbers

              1      
    1    2.0000
    2    1.9989
    3    1.9855
    4    1.9748
    5    1.1761
    6    0.8240
    7    0.0263
    8    0.0144


          Number of sigma calls:       22
                       o<<<<< (aa):             0.00
                       o<<<<< (bb):             0.00
                       o<<<<< (ab):             0.08
                       o<<<<< (total)           0.09
                       o<<<<< (aa) ff           0.00
                       o<<<<< (aa) gop          0.00
                       o<<<<< (aa) dot          0.00
                       o<<<<< (ab) str          0.00
                       o<<<<< (ab) gath         0.00
                       o<<<<< (ab) dotab        0.00
                       o<<<<< (ab) scat         0.00
                       o<<<<< (ab) sync         0.00
                       o<<<<< Density           0.01
                       o<<<<< Density one       0.01
                       o<<<<< Density two       0.00
                       o<<<<< Density ab        0.00
                       o<<<<< Spin adapt        0.57
                       o<<<<< Symm adapt        0.00

                       o<<<<< (ab) max sync:      0.00


       Final MCSCF results 
       ------------------- 

       Total MCSCF energy =    -75.967968158033
            Gradient norm =      4.7D-05

    CPU time for solution =      4.7s
   Wall time for solution =      8.4s



                        Analysis of MCSCF natural orbitals
                        ----------------------------------

 Vector    1  Occ=1.999992D+00  E=-2.061113D+01  Symmetry=a
              MO Center= -9.1D-02, -2.5D-01, -4.4D-10, r^2= 1.5D-02
   Bfn.  Coefficient  Atom+Function         Bfn.  Coefficient  Atom+Function  
  ----- ------------  ---------------      ----- ------------  ---------------
     1      0.973739  1 O  s          

 Vector    2  Occ=1.998890D+00  E=-1.307549D+00  Symmetry=a
              MO Center= -2.6D-01, -1.9D-01,  3.7D-07, r^2= 4.2D-01
   Bfn.  Coefficient  Atom+Function         Bfn.  Coefficient  Atom+Function  
  ----- ------------  ---------------      ----- ------------  ---------------
     2      0.552401  1 O  s                  4      0.401383  1 O  s          
     3      0.154249  1 O  s          

 Vector    3  Occ=1.985507D+00  E=-6.728311D-01  Symmetry=a
              MO Center= -6.2D-02, -2.6D-01, -3.6D-07, r^2= 6.2D-01
   Bfn.  Coefficient  Atom+Function         Bfn.  Coefficient  Atom+Function  
  ----- ------------  ---------------      ----- ------------  ---------------
    10      0.448766  1 O  pz                13      0.378172  1 O  pz         
     7      0.369715  1 O  pz         

 Vector    4  Occ=1.974841D+00  E=-5.499706D-01  Symmetry=a
              MO Center=  3.3D-01, -4.1D-01, -6.2D-09, r^2= 5.8D-01
   Bfn.  Coefficient  Atom+Function         Bfn.  Coefficient  Atom+Function  
  ----- ------------  ---------------      ----- ------------  ---------------
     8      0.329197  1 O  px                46      0.284858  3 H  s          
     5      0.274711  1 O  px                45      0.188588  3 H  s          
    11      0.176523  1 O  px         

 Vector    5  Occ=1.176052D+00  E=-3.411419D-01  Symmetry=a
              MO Center= -7.5D-02,  1.1D+00,  2.6D-11, r^2= 2.7D+00
   Bfn.  Coefficient  Atom+Function         Bfn.  Coefficient  Atom+Function  
  ----- ------------  ---------------      ----- ------------  ---------------
    32      0.340165  2 H  s                  9      0.315211  1 O  py         
    33      0.272305  2 H  s                  6      0.245564  1 O  py         
    12      0.211729  1 O  py                31      0.162636  2 H  s          

 Vector    6  Occ=8.240386D-01  E=-2.307571D-01  Symmetry=a
              MO Center= -8.1D-02,  1.2D+00,  1.1D-10, r^2= 2.7D+00
   Bfn.  Coefficient  Atom+Function         Bfn.  Coefficient  Atom+Function  
  ----- ------------  ---------------      ----- ------------  ---------------
    32     -0.371481  2 H  s                  9      0.337903  1 O  py         
    33     -0.272034  2 H  s                  6      0.261996  1 O  py         
    12      0.214339  1 O  py                31     -0.174030  2 H  s          

 Vector    7  Occ=2.630376D-02  E=-2.610162D-02  Symmetry=a
              MO Center=  5.1D-01, -4.7D-01, -1.9D-08, r^2= 5.9D-01
   Bfn.  Coefficient  Atom+Function         Bfn.  Coefficient  Atom+Function  
  ----- ------------  ---------------      ----- ------------  ---------------
    46      0.706152  3 H  s                  5     -0.476124  1 O  px         
     8     -0.417808  1 O  px                45      0.351789  3 H  s          
     2     -0.290085  1 O  s                  4     -0.256044  1 O  s          
     6      0.176743  1 O  py                 9      0.155501  1 O  py         

 Vector    8  Occ=1.437553D-02  E=-1.276243D-02  Symmetry=a
              MO Center=  5.5D-02, -3.0D-01, -4.9D-07, r^2= 1.2D+00
   Bfn.  Coefficient  Atom+Function         Bfn.  Coefficient  Atom+Function  
  ----- ------------  ---------------      ----- ------------  ---------------
    13      0.796892  1 O  pz                 7     -0.646431  1 O  pz         
    10     -0.265071  1 O  pz                53      0.173218  3 H  pz         

 Vector    9  Occ=0.000000D+00  E= 2.748009D-01  Symmetry=a
              MO Center=  1.0D+00, -5.9D-01,  1.6D-07, r^2= 3.9D+00
   Bfn.  Coefficient  Atom+Function         Bfn.  Coefficient  Atom+Function  
  ----- ------------  ---------------      ----- ------------  ---------------
    47      1.900905  3 H  s                  4     -1.205315  1 O  s          
    11     -0.533377  1 O  px                51     -0.400450  3 H  px         
    46     -0.259292  3 H  s                 32     -0.204593  2 H  s          
    12      0.171038  1 O  py                52      0.160039  3 H  py         

 Vector   10  Occ=0.000000D+00  E= 4.155229D-01  Symmetry=a
              MO Center= -5.8D-02,  2.6D+00, -1.5D-09, r^2= 3.7D+00
   Bfn.  Coefficient  Atom+Function         Bfn.  Coefficient  Atom+Function  
  ----- ------------  ---------------      ----- ------------  ---------------
    33      1.625043  2 H  s                 32     -1.357330  2 H  s          
    47     -0.511416  3 H  s                 46      0.232094  3 H  s          

 Vector   11  Occ=0.000000D+00  E= 6.391262D-01  Symmetry=a
              MO Center= -6.1D-01,  3.5D-01, -2.1D-08, r^2= 2.6D+00
   Bfn.  Coefficient  Atom+Function         Bfn.  Coefficient  Atom+Function  
  ----- ------------  ---------------      ----- ------------  ---------------
    46      2.809589  3 H  s                  4     -2.185686  1 O  s          
    11     -2.174142  1 O  px                12      0.956453  1 O  py         
    51     -0.850954  3 H  px                52      0.267680  3 H  py         
    47      0.257829  3 H  s                 38     -0.255601  2 H  py         
    37     -0.221559  2 H  px                33     -0.193859  2 H  s          

 Vector   12  Occ=0.000000D+00  E= 6.884631D-01  Symmetry=a
              MO Center= -1.5D-01,  1.1D+00, -1.8D-10, r^2= 3.3D+00
   Bfn.  Coefficient  Atom+Function         Bfn.  Coefficient  Atom+Function  
  ----- ------------  ---------------      ----- ------------  ---------------
     4      1.062040  1 O  s                 11      1.036643  1 O  px         
    46     -0.982198  3 H  s                 38     -0.652789  2 H  py         
    12      0.553799  1 O  py                 9     -0.506730  1 O  py         
    51      0.325071  3 H  px                52     -0.302278  3 H  py         
    47     -0.275976  3 H  s                 37      0.150220  2 H  px         

 Vector   13  Occ=0.000000D+00  E= 7.879857D-01  Symmetry=a
              MO Center= -6.4D-02,  2.5D+00,  2.7D-09, r^2= 1.4D+00
   Bfn.  Coefficient  Atom+Function         Bfn.  Coefficient  Atom+Function  
  ----- ------------  ---------------      ----- ------------  ---------------
    39      1.035575  2 H  pz                53     -0.257837  3 H  pz         
    13      0.171099  1 O  pz         

 Vector   14  Occ=0.000000D+00  E= 8.022687D-01  Symmetry=a
              MO Center= -1.4D-01,  2.4D+00, -2.8D-09, r^2= 1.6D+00
   Bfn.  Coefficient  Atom+Function         Bfn.  Coefficient  Atom+Function  
  ----- ------------  ---------------      ----- ------------  ---------------
    37      1.023298  2 H  px                46      0.703631  3 H  s          
    11     -0.635553  1 O  px                 4     -0.529243  1 O  s          
    51     -0.169224  3 H  px         

 Vector   15  Occ=0.000000D+00  E= 8.395261D-01  Symmetry=a
              MO Center=  6.9D-01, -2.9D-01,  1.5D-09, r^2= 2.0D+00
   Bfn.  Coefficient  Atom+Function         Bfn.  Coefficient  Atom+Function  
  ----- ------------  ---------------      ----- ------------  ---------------
    52      1.013716  3 H  py                 4     -0.668145  1 O  s          
    46      0.482878  3 H  s                  9     -0.362946  1 O  py         
    38      0.339697  2 H  py                11     -0.305160  1 O  px         
    12      0.237775  1 O  py                47      0.228335  3 H  s          
     8     -0.227126  1 O  px         

 Vector   16  Occ=0.000000D+00  E= 8.867163D-01  Symmetry=a
              MO Center=  4.4D-01, -3.3D-01,  1.9D-09, r^2= 2.1D+00
   Bfn.  Coefficient  Atom+Function         Bfn.  Coefficient  Atom+Function  
  ----- ------------  ---------------      ----- ------------  ---------------
    53      1.221232  3 H  pz                13     -0.938719  1 O  pz         
    39      0.225469  2 H  pz         

 Vector   17  Occ=0.000000D+00  E= 9.742490D-01  Symmetry=a
              MO Center= -8.0D-02,  1.3D-01,  5.0D-08, r^2= 3.9D+00
   Bfn.  Coefficient  Atom+Function         Bfn.  Coefficient  Atom+Function  
  ----- ------------  ---------------      ----- ------------  ---------------
     4      2.087471  1 O  s                 46     -1.355128  3 H  s          
    12     -1.322063  1 O  py                51      0.878277  3 H  px         
    38     -0.621372  2 H  py                47     -0.613455  3 H  s          
    52      0.481998  3 H  py                11      0.456793  1 O  px         
     2     -0.451497  1 O  s                  8      0.425444  1 O  px         

 Vector   18  Occ=0.000000D+00  E= 1.127546D+00  Symmetry=a
              MO Center=  2.7D-04,  3.4D-01,  3.6D-07, r^2= 2.4D+00
   Bfn.  Coefficient  Atom+Function         Bfn.  Coefficient  Atom+Function  
  ----- ------------  ---------------      ----- ------------  ---------------
     4      3.803414  1 O  s                 46     -2.161596  3 H  s          
     2     -1.080788  1 O  s                 11      1.083334  1 O  px         
    51      0.982235  3 H  px                47     -0.776586  3 H  s          
     8      0.635236  1 O  px                52     -0.592734  3 H  py         
     9     -0.395595  1 O  py                38      0.381112  2 H  py         


 Wrote Lagrangian and 1- and 2-particle density matrices to ./H2O.mcpdm


     Multipole analysis of the density
     ---------------------------------

     L   x y z        total        nuclear
     -   - - -        -----        -------
     0   0 0 0     -0.000000     10.000000

     1   1 0 0      0.596956     -0.000000
     1   0 1 0     -0.216770     -0.000000
     1   0 0 1      0.000000      0.000000

     2   2 0 0     -4.419218      2.679864
     2   1 1 0     -0.572312     -1.929786
     2   1 0 1     -0.000000      0.000000
     2   0 2 0     -4.534823     26.793890
     2   0 1 1     -0.000000      0.000000
     2   0 0 2     -5.918179      0.000000


  Mulliken analysis of the total density
  --------------------------------------

    Atom       Charge   Shell Charges
 -----------   ------   -------------------------------------------------------
    1 O    8     8.23   1.95  1.06  0.25  0.64  1.22  1.95  1.15  0.00  0.01  0.00
    2 H    1     1.00   0.17  0.49  0.34 -0.00  0.00  0.00
    3 H    1     0.77   0.25  0.40  0.03  0.02  0.06  0.01

    Mulliken analysis of the active space density
    ---------------------------------------------

    Atom       Charge   Shell Charges
 -----------   ------   -------------------------------------------------------
    1 O    8     8.23   1.95  1.06  0.25  0.64  1.22  1.95  1.15  0.00  0.01  0.00
    2 H    1     1.00   0.17  0.49  0.34 -0.00  0.00  0.00
    3 H    1     0.77   0.25  0.40  0.03  0.02  0.06  0.01

 Parallel integral file used      12 records with       0 large values


 Task  times  cpu:        4.7s     wall:        8.4s


                                NWChem Input Module
                                -------------------


                                 NWChem SCF Module
                                 -----------------


                                        H2O



  ao basis        = "ao basis"
  functions       =    58
  atoms           =     3
  closed shells   =     5
  open shells     =     0
  charge          =   0.00
  wavefunction    = RHF 
  input vectors   = ./h2o.mos
  output vectors  = ./h2o-trash.mos
  use symmetry    = F
  symmetry adapt  = F


 Summary of "ao basis" -> "ao basis" (spherical)
 ------------------------------------------------------------------------------
       Tag                 Description            Shells   Functions and Types
 ---------------- ------------------------------  ------  ---------------------
 O                          cc-pVTZ                 10       30   4s3p2d1f
 H                          cc-pVTZ                  6       14   3s2p1d



 Forming initial guess at       8.4s


 Loading old vectors from job with title :

H2O


 Starting SCF solution at       8.5s



 ----------------------------------------------
         Quadratically convergent ROHF

 Convergence threshold     :          1.000E-04
 Maximum no. of iterations :           30
 Final Fock-matrix accuracy:          1.000E-07
 ----------------------------------------------


 Integral file          = ./H2O.aoints.0
 Record size in doubles =  65536        No. of integs per rec  =  43688
 Max. records in memory =     49        Max. records in file   = 248783
 No. of bits per label  =      8        No. of bits per value  =     64


 #quartets = 2.854D+04 #integrals = 5.017D+05 #direct =  0.0% #cached =100.0%



       Final RHF  results 
       ------------------ 

         Total SCF energy =    -75.690482717416
      One-electron energy =   -116.440192563079
      Two-electron energy =     34.753269154277
 Nuclear repulsion energy =      5.996440691386

        Time for solution =      0.1s


             Final eigenvalues
             -----------------

              1      
    1  -20.6111
    2   -1.3075
    3   -0.6728
    4   -0.5500
    5   -0.3411
    6   -0.2308
    7   -0.0261
    8   -0.0128
    9    0.2748
   10    0.4155
   11    0.6391
   12    0.6885
   13    0.7880
   14    0.8023
   15    0.8395

                       ROHF Final Molecular Orbital Analysis
                       -------------------------------------

 Vector    2  Occ=2.000000D+00  E=-1.307549D+00
              MO Center= -2.6D-01, -1.9D-01,  3.7D-07, r^2= 4.2D-01
   Bfn.  Coefficient  Atom+Function         Bfn.  Coefficient  Atom+Function  
  ----- ------------  ---------------      ----- ------------  ---------------
     2      0.552401  1 O  s                  4      0.401383  1 O  s          
     3      0.154249  1 O  s          

 Vector    3  Occ=2.000000D+00  E=-6.728311D-01
              MO Center= -6.2D-02, -2.6D-01, -3.6D-07, r^2= 6.2D-01
   Bfn.  Coefficient  Atom+Function         Bfn.  Coefficient  Atom+Function  
  ----- ------------  ---------------      ----- ------------  ---------------
    10      0.448766  1 O  pz                13      0.378172  1 O  pz         
     7      0.369715  1 O  pz         

 Vector    4  Occ=2.000000D+00  E=-5.499706D-01
              MO Center=  3.3D-01, -4.1D-01, -6.2D-09, r^2= 5.8D-01
   Bfn.  Coefficient  Atom+Function         Bfn.  Coefficient  Atom+Function  
  ----- ------------  ---------------      ----- ------------  ---------------
     8      0.329197  1 O  px                46      0.284858  3 H  s          
     5      0.274711  1 O  px                45      0.188588  3 H  s          
    11      0.176523  1 O  px         

 Vector    5  Occ=2.000000D+00  E=-3.411419D-01
              MO Center= -7.5D-02,  1.1D+00,  2.6D-11, r^2= 2.7D+00
   Bfn.  Coefficient  Atom+Function         Bfn.  Coefficient  Atom+Function  
  ----- ------------  ---------------      ----- ------------  ---------------
    32      0.340165  2 H  s                  9      0.315211  1 O  py         
    33      0.272305  2 H  s                  6      0.245564  1 O  py         
    12      0.211729  1 O  py                31      0.162636  2 H  s          

 Vector    6  Occ=0.000000D+00  E=-2.307571D-01
              MO Center= -8.1D-02,  1.2D+00,  1.1D-10, r^2= 2.7D+00
   Bfn.  Coefficient  Atom+Function         Bfn.  Coefficient  Atom+Function  
  ----- ------------  ---------------      ----- ------------  ---------------
    32     -0.371481  2 H  s                  9      0.337903  1 O  py         
    33     -0.272034  2 H  s                  6      0.261996  1 O  py         
    12      0.214339  1 O  py                31     -0.174030  2 H  s          

 Vector    7  Occ=0.000000D+00  E=-2.610162D-02
              MO Center=  5.1D-01, -4.7D-01, -1.9D-08, r^2= 5.9D-01
   Bfn.  Coefficient  Atom+Function         Bfn.  Coefficient  Atom+Function  
  ----- ------------  ---------------      ----- ------------  ---------------
    46      0.706152  3 H  s                  5     -0.476124  1 O  px         
     8     -0.417808  1 O  px                45      0.351789  3 H  s          
     2     -0.290085  1 O  s                  4     -0.256044  1 O  s          
     6      0.176743  1 O  py                 9      0.155501  1 O  py         

 Vector    8  Occ=0.000000D+00  E=-1.276243D-02
              MO Center=  5.5D-02, -3.0D-01, -4.9D-07, r^2= 1.2D+00
   Bfn.  Coefficient  Atom+Function         Bfn.  Coefficient  Atom+Function  
  ----- ------------  ---------------      ----- ------------  ---------------
    13      0.796892  1 O  pz                 7     -0.646431  1 O  pz         
    10     -0.265071  1 O  pz                53      0.173218  3 H  pz         

 Vector    9  Occ=0.000000D+00  E= 2.748009D-01
              MO Center=  1.0D+00, -5.9D-01,  1.6D-07, r^2= 3.9D+00
   Bfn.  Coefficient  Atom+Function         Bfn.  Coefficient  Atom+Function  
  ----- ------------  ---------------      ----- ------------  ---------------
    47      1.900905  3 H  s                  4     -1.205315  1 O  s          
    11     -0.533377  1 O  px                51     -0.400450  3 H  px         
    46     -0.259292  3 H  s                 32     -0.204593  2 H  s          
    12      0.171038  1 O  py                52      0.160039  3 H  py         

 Vector   10  Occ=0.000000D+00  E= 4.155229D-01
              MO Center= -5.8D-02,  2.6D+00, -1.5D-09, r^2= 3.7D+00
   Bfn.  Coefficient  Atom+Function         Bfn.  Coefficient  Atom+Function  
  ----- ------------  ---------------      ----- ------------  ---------------
    33      1.625043  2 H  s                 32     -1.357330  2 H  s          
    47     -0.511416  3 H  s                 46      0.232094  3 H  s          

 Vector   11  Occ=0.000000D+00  E= 6.391262D-01
              MO Center= -6.1D-01,  3.5D-01, -2.1D-08, r^2= 2.6D+00
   Bfn.  Coefficient  Atom+Function         Bfn.  Coefficient  Atom+Function  
  ----- ------------  ---------------      ----- ------------  ---------------
    46      2.809589  3 H  s                  4     -2.185686  1 O  s          
    11     -2.174142  1 O  px                12      0.956453  1 O  py         
    51     -0.850954  3 H  px                52      0.267680  3 H  py         
    47      0.257829  3 H  s                 38     -0.255601  2 H  py         
    37     -0.221559  2 H  px                33     -0.193859  2 H  s          

 Vector   12  Occ=0.000000D+00  E= 6.884631D-01
              MO Center= -1.5D-01,  1.1D+00, -1.8D-10, r^2= 3.3D+00
   Bfn.  Coefficient  Atom+Function         Bfn.  Coefficient  Atom+Function  
  ----- ------------  ---------------      ----- ------------  ---------------
     4      1.062040  1 O  s                 11      1.036643  1 O  px         
    46     -0.982198  3 H  s                 38     -0.652789  2 H  py         
    12      0.553799  1 O  py                 9     -0.506730  1 O  py         
    51      0.325071  3 H  px                52     -0.302278  3 H  py         
    47     -0.275976  3 H  s                 37      0.150220  2 H  px         

 Vector   13  Occ=0.000000D+00  E= 7.879857D-01
              MO Center= -6.4D-02,  2.5D+00,  2.7D-09, r^2= 1.4D+00
   Bfn.  Coefficient  Atom+Function         Bfn.  Coefficient  Atom+Function  
  ----- ------------  ---------------      ----- ------------  ---------------
    39      1.035575  2 H  pz                53     -0.257837  3 H  pz         
    13      0.171099  1 O  pz         

 Vector   14  Occ=0.000000D+00  E= 8.022687D-01
              MO Center= -1.4D-01,  2.4D+00, -2.8D-09, r^2= 1.6D+00
   Bfn.  Coefficient  Atom+Function         Bfn.  Coefficient  Atom+Function  
  ----- ------------  ---------------      ----- ------------  ---------------
    37      1.023298  2 H  px                46      0.703631  3 H  s          
    11     -0.635553  1 O  px                 4     -0.529243  1 O  s          
    51     -0.169224  3 H  px         

 Vector   15  Occ=0.000000D+00  E= 8.395261D-01
              MO Center=  6.9D-01, -2.9D-01,  1.5D-09, r^2= 2.0D+00
   Bfn.  Coefficient  Atom+Function         Bfn.  Coefficient  Atom+Function  
  ----- ------------  ---------------      ----- ------------  ---------------
    52      1.013716  3 H  py                 4     -0.668145  1 O  s          
    46      0.482878  3 H  s                  9     -0.362946  1 O  py         
    38      0.339697  2 H  py                11     -0.305160  1 O  px         
    12      0.237775  1 O  py                47      0.228335  3 H  s          
     8     -0.227126  1 O  px         


 center of mass
 --------------
 x =  -0.07599894 y =  -0.20688570 z =   0.00000000

 moments of inertia (a.u.)
 ------------------
          27.982982683213           1.585095245824           0.000000000000
           1.585095245824           2.833002082974           0.000000000000
           0.000000000000           0.000000000000          30.815984766187

  Mulliken analysis of the total density
  --------------------------------------

    Atom       Charge   Shell Charges
 -----------   ------   -------------------------------------------------------
    1 O    8     8.24   1.95  1.06  0.25  0.64  1.20  1.95  1.18  0.00  0.01  0.00
    2 H    1     0.99   0.17  0.47  0.36 -0.00  0.00  0.00
    3 H    1     0.77   0.25  0.40  0.03  0.02  0.06  0.01

       Multipole analysis of the density wrt the origin
       ------------------------------------------------

     L   x y z        total         open         nuclear
     -   - - -        -----         ----         -------
     0   0 0 0     -0.000000      0.000000     10.000000

     1   1 0 0      0.601555      0.000000     -0.000000
     1   0 1 0     -0.143118      0.000000     -0.000000
     1   0 0 1      0.000000      0.000000      0.000000

     2   2 0 0     -4.453362      0.000000      2.679864
     2   1 1 0     -0.641288      0.000000     -1.929786
     2   1 0 1     -0.000000      0.000000      0.000000
     2   0 2 0     -3.845043      0.000000     26.793890
     2   0 1 1     -0.000000      0.000000      0.000000
     2   0 0 2     -5.954106      0.000000      0.000000


 Parallel integral file used      12 records with       0 large values

 ------------------------------------
     Number of active orbitals      8
     Number of active alpha electrons      5
     Number of active beta electrons       5
 ------------------------------------
                   NWChem Extensible Many-Electron Theory Module
                   ---------------------------------------------

              ======================================================
                   This portion of the program was automatically
                  generated by a Tensor Contraction Engine (TCE).
                  The development of this portion of the program
                 and TCE was supported by US Department of Energy,
                Office of Science, Office of Basic Energy Science.
                      TCE is a product of Battelle and PNNL.
              Please cite: S.Hirata, J.Phys.Chem.A 107, 9887 (2003).
              ======================================================

                                        H2O


            General Information
            -------------------
      Number of processors :     1
         Wavefunction type : Restricted Hartree-Fock
          No. of electrons :    10
           Alpha electrons :     5
            Beta electrons :     5
           No. of orbitals :   116
            Alpha orbitals :    58
             Beta orbitals :    58
        Alpha frozen cores :     0
         Beta frozen cores :     0
     Alpha frozen virtuals :    50
      Beta frozen virtuals :    50
         Spin multiplicity : singlet 
    Number of AO functions :    58
       Number of AO shells :    22
        Use of symmetry is : off
      Symmetry adaption is : off
         Schwarz screening : 0.10D-09

          Correlation Information
          -----------------------
          Calculation type : Coupled-cluster singles & doubles                           
   Perturbative correction : none                                                        
            Max iterations :      300
        Residual threshold : 0.10D-06
     T(0) DIIS level shift : 0.00D+00
     L(0) DIIS level shift : 0.00D+00
     T(1) DIIS level shift : 0.00D+00
     L(1) DIIS level shift : 0.00D+00
     T(R) DIIS level shift : 0.00D+00
     T(I) DIIS level shift : 0.00D+00
   CC-T/L Amplitude update :  5-th order DIIS
                I/O scheme : Global Array Library
        L-threshold :  0.10D-06
        EOM-threshold :  0.10D-06
 no EOMCCSD initial starts read in
 TCE RESTART OPTIONS
 READ_INT:   F
 WRITE_INT:  F
 READ_TA:    F
 WRITE_TA:   F
 READ_XA:    F
 WRITE_XA:   F
 READ_IN3:   F
 WRITE_IN3:  F
 SLICE:      F
 D4D5:       F
 quantumc:   T
 qrotation:  F
 pwtce:      F
 qducc:      F
 nacto:                         0
 nrotv:                         0
 nrot:                          0

            Memory Information
            ------------------
          Available GA space size is    1610609372 doubles
          Available MA space size is    1610609780 doubles

 Maximum block size supplied by input
 Maximum block size         1 doubles

 tile_dim =      1

 Block   Spin    Irrep     Size     Offset   Alpha
 -------------------------------------------------
   1    alpha     a      1 doubles       0       1
   2    alpha     a      1 doubles       1       2
   3    alpha     a      1 doubles       2       3
   4    alpha     a      1 doubles       3       4
   5    alpha     a      1 doubles       4       5
   6    beta      a      1 doubles       5       1
   7    beta      a      1 doubles       6       2
   8    beta      a      1 doubles       7       3
   9    beta      a      1 doubles       8       4
  10    beta      a      1 doubles       9       5
  11    alpha     a      1 doubles      10      11
  12    alpha     a      1 doubles      11      12
  13    alpha     a      1 doubles      12      13
  14    beta      a      1 doubles      13      11
  15    beta      a      1 doubles      14      12
  16    beta      a      1 doubles      15      13

 Global array virtual files algorithm will be used

 Parallel file system coherency ......... OK

 Integral file          = ./H2O.aoints.0
 Record size in doubles =  65536        No. of integs per rec  =  43688
 Max. records in memory =     49        Max. records in file   = 248783
 No. of bits per label  =      8        No. of bits per value  =     64


 #quartets = 3.070D+04 #integrals = 5.703D+05 #direct =  0.0% #cached =100.0%


 Fock matrix recomputed
 1-e file size   =               64
 1-e file name   = ./H2O.f1
 Cpu & wall time / sec            0.1            0.1
 4-electron integrals stored in orbital form

 v2    file size   =              666
 4-index algorithm nr.  13 is used
 imaxsize =       30
 imaxsize ichop =        0
 begin_one_electron_integrals
    1    1       -32.6174582399
    2    1        -1.1143676700
    3    1        -0.0000000988
    4    1         0.1414013010
    5    1        -0.0159310242
    6    1         0.0171123293
    7    1        -0.2124998795
    8    1         0.0000003258
    1    2        -1.1143676700
    2    2        -7.6187399261
    3    2         0.0000003748
    4    2        -0.2627882471
    5    2         0.0495776923
    6    2        -0.0808628214
    7    2         0.1273634651
    8    2         0.0000001536
    1    3        -0.0000000988
    2    3         0.0000003748
    3    3        -6.8193674458
    4    3         0.0000001555
    5    3        -0.0000000259
    6    3         0.0000000424
    7    3        -0.0000001134
    8    3         2.1117559662
    1    4         0.1414013010
    2    4        -0.2627882471
    3    4         0.0000001555
    4    4        -6.5964524711
    5    4        -0.0281859161
    6    4         0.0214968685
    7    4         1.9052926824
    8    4         0.0000001894
    1    5        -0.0159310242
    2    5         0.0495776923
    3    5        -0.0000000259
    4    5        -0.0281859161
    5    5        -4.5680781987
    6    5        -2.4292478814
    7    5         0.0101941251
    8    5         0.0000000604
    1    6         0.0171123293
    2    6        -0.0808628214
    3    6         0.0000000424
    4    6         0.0214968685
    5    6        -2.4292478814
    6    6        -4.6020499869
    7    6        -0.0081289724
    8    6        -0.0000000454
    1    7        -0.2124998795
    2    7         0.1273634651
    3    7        -0.0000001134
    4    7         1.9052926824
    5    7         0.0101941251
    6    7        -0.0081289724
    7    7        -5.8673370586
    8    7         0.0000000078
    1    8         0.0000003258
    2    8         0.0000001536
    3    8         2.1117559662
    4    8         0.0000001894
    5    8         0.0000000604
    6    8        -0.0000000454
    7    8         0.0000000078
    8    8        -5.2049823133
 end_one_electron_integrals
 begin_two_electron_integrals
    1    1    1    1        4.8319349880
    2    1    1    1       -0.2099415415
    2    1    2    1        0.0278146358
    3    1    1    1        0.0000002105
    3    1    2    1       -0.0000000063
    3    1    3    1        0.0281020690
    3    1    2    2        0.0000000298
    4    1    1    1       -0.0901175158
    4    1    2    1        0.0021621619
    4    1    3    1       -0.0000000039
    4    1    4    1        0.0210609518
    4    1    2    2       -0.0136834564
    4    1    3    2        0.0000000050
    4    1    3    3       -0.0026025588
    5    1    1    1        0.0092403196
    5    1    2    1       -0.0008352696
    5    1    3    1        0.0000000007
    5    1    4    1        0.0000288871
    5    1    5    1        0.0144486625
    5    1    2    2        0.0005590134
    5    1    3    2        0.0000000001
    5    1    4    2        0.0002272098
    5    1    3    3        0.0007613888
    5    1    4    3       -0.0000000001
    5    1    4    4        0.0007623011
    6    1    1    1       -0.0105722063
    6    1    2    1        0.0008750595
    6    1    3    1       -0.0000000007
    6    1    4    1        0.0000549250
    6    1    5    1        0.0151225582
    6    1    6    1        0.0159610411
    6    1    2    2       -0.0007494130
    6    1    4    2       -0.0002069655
    6    1    5    2        0.0135796163
    6    1    3    3       -0.0007998610
    6    1    4    3        0.0000000001
    6    1    5    3       -0.0000000073
    6    1    4    4       -0.0007932142
    6    1    5    4        0.0027055747
    6    1    5    5       -0.0003958188
    7    1    1    1        0.1724674409
    7    1    2    1       -0.0070539899
    7    1    3    1        0.0000000095
    7    1    4    1       -0.0326639248
    7    1    5    1        0.0001031277
    7    1    6    1       -0.0001772531
    7    1    7    1        0.0513729550
    7    1    2    2        0.0220999085
    7    1    3    2       -0.0000000081
    7    1    4    2       -0.0256713053
    7    1    5    2       -0.0005733594
    7    1    6    2        0.0006078905
    7    1    3    3        0.0039331330
    7    1    4    3        0.0000000134
    7    1    5    3        0.0000000003
    7    1    6    3       -0.0000000003
    7    1    4    4       -0.0142697053
    7    1    5    4        0.0002855000
    7    1    6    4       -0.0003306031
    7    1    5    5        0.0024331818
    7    1    6    5        0.0018061904
    7    1    6    6        0.0025207536
    8    1    1    1       -0.0000002643
    8    1    2    1        0.0000000062
    8    1    3    1       -0.0395429698
    8    1    4    1        0.0000000031
    8    1    5    1       -0.0000000009
    8    1    6    1        0.0000000009
    8    1    7    1       -0.0000000092
    8    1    8    1        0.0561730856
    8    1    2    2       -0.0000000437
    8    1    3    2       -0.0387704050
    8    1    4    2       -0.0000000093
    8    1    5    2        0.0000000003
    8    1    6    2       -0.0000000005
    8    1    7    2        0.0000000112
    8    1    3    3        0.0000000336
    8    1    4    3       -0.0075495177
    8    1    5    3        0.0005335787
    8    1    6    3       -0.0006558870
    8    1    7    3        0.0104818849
    8    1    4    4       -0.0000000094
    8    1    7    4        0.0000000069
    8    1    5    5       -0.0000000036
    8    1    6    5       -0.0000000041
    8    1    6    6       -0.0000000040
    8    1    7    6        0.0000000001
    8    1    7    7       -0.0000000132
    2    2    1    1        1.0798716956
    2    2    2    1        0.0104568370
    2    2    2    2        0.8289043550
    3    2    1    1       -0.0000000203
    3    2    2    1        0.0000000090
    3    2    3    1        0.0248458818
    3    2    2    2        0.0000001101
    3    2    3    2        0.1450448713
    4    2    1    1       -0.0063800699
    4    2    2    1       -0.0036452180
    4    2    3    1        0.0000000039
    4    2    4    1        0.0159541898
    4    2    2    2       -0.0575946642
    4    2    3    2        0.0000000468
    4    2    4    2        0.0910355380
    4    2    3    3        0.0106076866
    5    2    1    1       -0.0142829832
    5    2    2    1       -0.0002137161
    5    2    3    1       -0.0000000003
    5    2    4    1        0.0003858137
    5    2    5    1        0.0127396235
    5    2    2    2       -0.0094338459
    5    2    4    2        0.0013104994
    5    2    5    2        0.0748454579
    5    2    3    3       -0.0075649866
    5    2    4    3       -0.0000000006
    5    2    4    4       -0.0057530847
    6    2    1    1        0.0143174010
    6    2    2    1        0.0001623621
    6    2    3    1        0.0000000003
    6    2    4    1       -0.0003653284
    6    2    5    1        0.0132277267
    6    2    6    1        0.0140313222
    6    2    2    2        0.0088333386
    6    2    3    2        0.0000000006
    6    2    4    2       -0.0014374626
    6    2    5    2        0.0749877851
    6    2    6    2        0.0760031369
    6    2    3    3        0.0077136893
    6    2    4    3        0.0000000008
    6    2    5    3       -0.0000000291
    6    2    4    4        0.0055451459
    6    2    5    4        0.0114351802
    6    2    5    5        0.0089945728
    7    2    1    1       -0.0261531187
    7    2    2    1        0.0042546361
    7    2    3    1       -0.0000000064
    7    2    4    1       -0.0158384529
    7    2    5    1       -0.0002265766
    7    2    6    1        0.0002818250
    7    2    7    1        0.0237623478
    7    2    2    2        0.0289567208
    7    2    3    2       -0.0000000396
    7    2    4    2       -0.0614308417
    7    2    5    2       -0.0006535204
    7    2    6    2        0.0011538216
    7    2    7    2        0.0538611205
    7    2    3    3       -0.0198819089
    7    2    4    3        0.0000000221
    7    2    5    3        0.0000000005
    7    2    6    3       -0.0000000008
    7    2    4    4       -0.0362674652
    7    2    5    4        0.0006624145
    7    2    6    4       -0.0008109465
    7    2    5    5       -0.0105102074
    7    2    6    5       -0.0124730568
    7    2    6    6       -0.0114934409
    8    2    1    1       -0.0000000326
    8    2    2    1       -0.0000000096
    8    2    3    1       -0.0206594473
    8    2    4    1       -0.0000000042
    8    2    5    1       -0.0000000002
    8    2    7    1        0.0000000052
    8    2    8    1        0.0276620294
    8    2    2    2       -0.0000000698
    8    2    3    2       -0.0547043614
    8    2    4    2       -0.0000000050
    8    2    5    2        0.0000000003
    8    2    6    2       -0.0000000009
    8    2    7    2        0.0000000160
    8    2    8    2        0.0456008953
    8    2    3    3        0.0000000396
    8    2    4    3       -0.0027190572
    8    2    5    3        0.0009953579
    8    2    6    3       -0.0012839382
    8    2    7    3        0.0115307841
    8    2    4    4       -0.0000000074
    8    2    5    4        0.0000000001
    8    2    6    4       -0.0000000002
    8    2    7    4        0.0000000131
    8    2    5    5       -0.0000000091
    8    2    6    5       -0.0000000056
    8    2    6    6       -0.0000000090
    8    2    7    7       -0.0000000040
    3    3    1    1        1.0502571910
    3    3    2    1        0.0083257106
    3    3    3    1       -0.0000000216
    3    3    2    2        0.7426858296
    3    3    3    2       -0.0000001402
    3    3    3    3        0.7620183140
    4    3    1    1       -0.0000000049
    4    3    2    1        0.0000000040
    4    3    3    1        0.0050514092
    4    3    4    1       -0.0000000088
    4    3    2    2        0.0000000514
    4    3    3    2        0.0232802785
    4    3    4    2       -0.0000000271
    4    3    3    3       -0.0000000326
    4    3    4    3        0.0366435325
    5    3    1    1        0.0000000077
    5    3    3    1       -0.0003733375
    5    3    4    1       -0.0000000002
    5    3    5    1       -0.0000000068
    5    3    2    2        0.0000000030
    5    3    3    2       -0.0018207576
    5    3    4    2       -0.0000000007
    5    3    5    2       -0.0000000291
    5    3    3    3        0.0000000059
    5    3    4    3       -0.0000293823
    5    3    5    3        0.0189484843
    5    3    4    4        0.0000000030
    6    3    1    1       -0.0000000077
    6    3    2    1        0.0000000001
    6    3    3    1        0.0004506832
    6    3    4    1        0.0000000002
    6    3    5    1       -0.0000000071
    6    3    6    1       -0.0000000075
    6    3    2    2       -0.0000000023
    6    3    3    2        0.0021445612
    6    3    4    2        0.0000000008
    6    3    5    2       -0.0000000290
    6    3    6    2       -0.0000000294
    6    3    3    3       -0.0000000062
    6    3    4    3        0.0001289874
    6    3    5    3        0.0190847020
    6    3    6    3        0.0194435809
    6    3    4    4       -0.0000000029
    6    3    5    4       -0.0000000061
    6    3    5    5       -0.0000000048
    7    3    1    1        0.0000000297
    7    3    2    1       -0.0000000060
    7    3    3    1       -0.0077722792
    7    3    4    1        0.0000000087
    7    3    5    1        0.0000000001
    7    3    6    1       -0.0000000002
    7    3    7    1       -0.0000000133
    7    3    2    2       -0.0000000382
    7    3    3    2       -0.0226503907
    7    3    4    2        0.0000000250
    7    3    5    2        0.0000000005
    7    3    6    2       -0.0000000008
    7    3    7    2       -0.0000000180
    7    3    3    3        0.0000000374
    7    3    4    3       -0.0207555481
    7    3    5    3        0.0002501378
    7    3    6    3       -0.0002802413
    7    3    7    3        0.0253713960
    7    3    4    4        0.0000000266
    7    3    5    4       -0.0000000003
    7    3    6    4        0.0000000004
    7    3    5    5        0.0000000070
    7    3    6    5        0.0000000085
    7    3    6    6        0.0000000077
    8    3    1    1       -0.5375160519
    8    3    2    1       -0.0056108842
    8    3    3    1        0.0000000162
    8    3    4    1        0.0044014278
    8    3    5    1       -0.0005605156
    8    3    6    1        0.0005444830
    8    3    7    1       -0.0078225215
    8    3    8    1       -0.0000000221
    8    3    2    2       -0.2195662844
    8    3    3    2        0.0000000577
    8    3    4    2        0.0114200403
    8    3    5    2        0.0035992138
    8    3    6    2       -0.0040519676
    8    3    7    2        0.0057349572
    8    3    8    2       -0.0000000333
    8    3    3    3       -0.2120629285
    8    3    4    3       -0.0000000006
    8    3    5    3       -0.0000000030
    8    3    6    3        0.0000000035
    8    3    7    3       -0.0000000186
    8    3    8    3        0.1663972923
    8    3    4    4       -0.1383831469
    8    3    5    4       -0.0012026185
    8    3    6    4        0.0008908666
    8    3    7    4        0.1250963180
    8    3    5    5       -0.0998119020
    8    3    6    5       -0.0978970102
    8    3    7    5        0.0008633173
    8    3    6    6       -0.1058298199
    8    3    7    6       -0.0008591220
    8    3    7    7       -0.1634733399
    4    4    1    1        0.9084302560
    4    4    2    1        0.0049289715
    4    4    3    1        0.0000000045
    4    4    4    1        0.0079351725
    4    4    2    2        0.6365706866
    4    4    3    2        0.0000000034
    4    4    4    2        0.0803679901
    4    4    3    3        0.6386213247
    4    4    4    3       -0.0000000409
    4    4    4    4        0.7751953615
    5    4    1    1        0.0053546830
    5    4    2    1        0.0001155982
    5    4    4    1       -0.0001957413
    5    4    5    1        0.0025707390
    5    4    2    2        0.0037325993
    5    4    3    2       -0.0000000003
    5    4    4    2       -0.0006209177
    5    4    5    2        0.0109802578
    5    4    3    3        0.0029856077
    5    4    4    3        0.0000000003
    5    4    5    3       -0.0000000058
    5    4    4    4        0.0031917160
    5    4    5    4        0.0181438245
    6    4    1    1       -0.0044882336
    6    4    2    1       -0.0001272794
    6    4    4    1        0.0002383089
    6    4    5    1        0.0026805899
    6    4    6    1        0.0028390837
    6    4    2    2       -0.0035868588
    6    4    3    2        0.0000000004
    6    4    4    2        0.0006141217
    6    4    5    2        0.0120300249
    6    4    6    2        0.0121171391
    6    4    3    3       -0.0026418886
    6    4    4    3       -0.0000000003
    6    4    5    3       -0.0000000064
    6    4    6    3       -0.0000000064
    6    4    4    4       -0.0031522757
    6    4    5    4        0.0183624893
    6    4    6    4        0.0188606509
    6    4    5    5        0.0011880265
    7    4    1    1       -0.4713637691
    7    4    2    1       -0.0029142985
    7    4    3    1       -0.0000000053
    7    4    4    1       -0.0038139369
    7    4    5    1       -0.0005566492
    7    4    6    1        0.0005527603
    7    4    7    1        0.0021778706
    7    4    2    2       -0.2122941060
    7    4    3    2        0.0000000194
    7    4    4    2        0.0155723907
    7    4    5    2        0.0031498493
    7    4    6    2       -0.0035820973
    7    4    7    2        0.0160124673
    7    4    3    3       -0.1827082892
    7    4    4    3       -0.0000000033
    7    4    5    3       -0.0000000017
    7    4    6    3        0.0000000019
    7    4    7    3       -0.0000000098
    7    4    4    4       -0.0933366450
    7    4    5    4       -0.0006525546
    7    4    6    4        0.0000497385
    7    4    7    4        0.2137003516
    7    4    5    5       -0.1006761664
    7    4    6    5       -0.0916113532
    7    4    6    6       -0.1057590724
    8    4    1    1       -0.0000000374
    8    4    2    1       -0.0000000037
    8    4    3    1       -0.0021928443
    8    4    4    1        0.0000000043
    8    4    7    1       -0.0000000064
    8    4    8    1        0.0018400951
    8    4    2    2       -0.0000000144
    8    4    3    2        0.0079962151
    8    4    4    2        0.0000000035
    8    4    5    2        0.0000000005
    8    4    6    2       -0.0000000005
    8    4    7    2       -0.0000000012
    8    4    8    2        0.0028182070
    8    4    3    3       -0.0000000250
    8    4    4    3        0.0000860177
    8    4    5    3       -0.0000715410
    8    4    6    3        0.0000145949
    8    4    7    3        0.0150692276
    8    4    8    3        0.0000000038
    8    4    4    4       -0.0000000206
    8    4    5    4       -0.0000000003
    8    4    6    4        0.0000000003
    8    4    7    4        0.0000000039
    8    4    8    4        0.0199511136
    8    4    5    5       -0.0000000088
    8    4    6    5       -0.0000000100
    8    4    7    5        0.0000000002
    8    4    6    6       -0.0000000093
    8    4    7    6       -0.0000000001
    8    4    7    7       -0.0000000181
    5    5    1    1        0.6308552302
    5    5    2    1        0.0042451895
    5    5    3    1        0.0000000027
    5    5    4    1       -0.0014811865
    5    5    5    1        0.0001355650
    5    5    2    2        0.4747093069
    5    5    3    2       -0.0000000163
    5    5    4    2        0.0015782148
    5    5    5    2        0.0047941055
    5    5    3    3        0.4424434316
    5    5    4    3       -0.0000000021
    5    5    5    3       -0.0000000025
    5    5    4    4        0.4113857987
    5    5    5    4        0.0014508183
    5    5    5    5        0.4440691874
    6    5    1    1        0.4534339687
    6    5    2    1        0.0044816346
    6    5    3    1        0.0000000027
    6    5    4    1       -0.0013108721
    6    5    5    1        0.0003654970
    6    5    6    1       -0.0006942009
    6    5    2    2        0.2863546086
    6    5    3    2       -0.0000000122
    6    5    4    2        0.0079769833
    6    5    5    2       -0.0125748240
    6    5    6    2       -0.0021478586
    6    5    3    3        0.2614711091
    6    5    4    3       -0.0000000052
    6    5    5    3        0.0000000066
    6    5    6    3        0.0000000013
    6    5    4    4        0.2391202373
    6    5    5    4        0.0018171511
    6    5    6    4       -0.0036493484
    6    5    5    5        0.0473787212
    6    5    6    5        0.2628865247
    7    5    1    1       -0.0025516634
    7    5    2    1       -0.0000962966
    7    5    4    1        0.0002144250
    7    5    5    1       -0.0043941443
    7    5    6    1       -0.0046370322
    7    5    7    1       -0.0003603939
    7    5    2    2       -0.0018013708
    7    5    3    2        0.0000000006
    7    5    4    2        0.0013346397
    7    5    5    2       -0.0149170033
    7    5    6    2       -0.0153278043
    7    5    7    2       -0.0008743203
    7    5    3    3       -0.0007231905
    7    5    4    3       -0.0000000007
    7    5    5    3        0.0000000077
    7    5    6    3        0.0000000079
    7    5    7    3        0.0000000005
    7    5    4    4        0.0004572180
    7    5    5    4       -0.0116555088
    7    5    6    4       -0.0121607664
    7    5    7    4        0.0015798463
    7    5    5    5       -0.0012556452
    7    5    6    5        0.0005245956
    7    5    7    5        0.0142048801
    7    5    6    6       -0.0015685793
    8    5    1    1       -0.0000000102
    8    5    3    1        0.0003249792
    8    5    4    1        0.0000000002
    8    5    5    1        0.0000000039
    8    5    6    1        0.0000000041
    8    5    7    1       -0.0000000003
    8    5    8    1       -0.0005052711
    8    5    2    2       -0.0000000045
    8    5    3    2        0.0018192040
    8    5    4    2        0.0000000006
    8    5    5    2        0.0000000003
    8    5    6    2        0.0000000006
    8    5    7    2       -0.0000000003
    8    5    8    2       -0.0005828762
    8    5    3    3       -0.0000000076
    8    5    4    3        0.0001712187
    8    5    5    3       -0.0059838095
    8    5    6    3       -0.0064797077
    8    5    7    3       -0.0000857333
    8    5    8    3        0.0000000026
    8    5    4    4       -0.0000000046
    8    5    5    4       -0.0000000007
    8    5    6    4       -0.0000000007
    8    5    7    4        0.0000000020
    8    5    8    4        0.0002753424
    8    5    5    5       -0.0000000031
    8    5    6    5       -0.0000000037
    8    5    7    5       -0.0000000013
    8    5    8    5        0.0087459209
    8    5    6    6       -0.0000000015
    8    5    7    6       -0.0000000015
    8    5    7    7       -0.0000000047
    6    6    1    1        0.6510545925
    6    6    2    1        0.0045587694
    6    6    3    1        0.0000000030
    6    6    4    1       -0.0015517708
    6    6    5    1        0.0008601916
    6    6    6    1        0.0003059574
    6    6    2    2        0.4801368475
    6    6    3    2       -0.0000000164
    6    6    4    2        0.0025293802
    6    6    5    2        0.0063268557
    6    6    6    2        0.0110191326
    6    6    3    3        0.4475452819
    6    6    4    3       -0.0000000026
    6    6    5    3       -0.0000000033
    6    6    6    3       -0.0000000059
    6    6    4    4        0.4157126188
    6    6    5    4        0.0012430027
    6    6    6    4        0.0009550451
    6    6    5    5        0.4530646889
    6    6    6    5        0.0438880897
    6    6    6    6        0.4640374333
    7    6    1    1        0.0025961630
    7    6    2    1        0.0001395744
    7    6    4    1       -0.0003082163
    7    6    5    1       -0.0046026096
    7    6    6    1       -0.0048460596
    7    6    7    1        0.0004986563
    7    6    2    2        0.0024455138
    7    6    3    2       -0.0000000009
    7    6    4    2       -0.0017763041
    7    6    5    2       -0.0155463227
    7    6    6    2       -0.0158560746
    7    6    7    2        0.0010722628
    7    6    3    3        0.0008084893
    7    6    4    3        0.0000000009
    7    6    5    3        0.0000000081
    7    6    6    3        0.0000000082
    7    6    7    3       -0.0000000006
    7    6    4    4       -0.0010042555
    7    6    5    4       -0.0123024369
    7    6    6    4       -0.0128299949
    7    6    7    4       -0.0018169614
    7    6    5    5        0.0002973539
    7    6    6    5        0.0007355873
    7    6    7    5        0.0146502412
    7    6    6    6       -0.0000352078
    7    6    7    6        0.0153047214
    8    6    1    1        0.0000000087
    8    6    2    1       -0.0000000002
    8    6    3    1       -0.0004423140
    8    6    4    1       -0.0000000002
    8    6    5    1        0.0000000042
    8    6    6    1        0.0000000044
    8    6    7    1        0.0000000003
    8    6    8    1        0.0006911888
    8    6    2    2        0.0000000034
    8    6    3    2       -0.0023181536
    8    6    4    2       -0.0000000007
    8    6    5    2        0.0000000014
    8    6    6    2        0.0000000021
    8    6    7    2        0.0000000005
    8    6    8    2        0.0008380465
    8    6    3    3        0.0000000077
    8    6    4    3       -0.0003081757
    8    6    5    3       -0.0068256882
    8    6    6    3       -0.0073145523
    8    6    7    3        0.0001867052
    8    6    8    3       -0.0000000024
    8    6    4    4        0.0000000043
    8    6    5    4       -0.0000000005
    8    6    6    4       -0.0000000007
    8    6    7    4       -0.0000000016
    8    6    8    4       -0.0002818511
    8    6    5    5       -0.0000000038
    8    6    6    5        0.0000000090
    8    6    7    5       -0.0000000016
    8    6    8    5        0.0085860944
    8    6    6    6       -0.0000000032
    8    6    7    6       -0.0000000016
    8    6    8    6        0.0088275064
    8    6    7    7        0.0000000043
    7    7    1    1        1.0486262306
    7    7    2    1        0.0035026974
    7    7    3    1        0.0000000073
    7    7    4    1        0.0077147140
    7    7    5    1        0.0010141613
    7    7    6    1       -0.0010299376
    7    7    7    1       -0.0127136733
    7    7    2    2        0.6312672871
    7    7    3    2       -0.0000000013
    7    7    4    2        0.0705152678
    7    7    5    2       -0.0059837237
    7    7    6    2        0.0059053395
    7    7    7    2       -0.0351339100
    7    7    3    3        0.6362528367
    7    7    4    3       -0.0000000379
    7    7    5    3        0.0000000032
    7    7    6    3       -0.0000000032
    7    7    7    3        0.0000000292
    7    7    4    4        0.7588057336
    7    7    5    4        0.0034176622
    7    7    6    4       -0.0034179142
    7    7    7    4       -0.0884417196
    7    7    5    5        0.4083769969
    7    7    6    5        0.2416396879
    7    7    7    5        0.0005550666
    7    7    6    6        0.4139352906
    7    7    7    6       -0.0011965866
    7    7    7    7        0.7998659146
    8    7    1    1       -0.0000000039
    8    7    2    1        0.0000000059
    8    7    3    1        0.0070478126
    8    7    4    1       -0.0000000068
    8    7    6    1        0.0000000001
    8    7    7    1        0.0000000098
    8    7    8    1       -0.0100901683
    8    7    2    2        0.0000000367
    8    7    3    2        0.0241676739
    8    7    4    2       -0.0000000055
    8    7    5    2       -0.0000000003
    8    7    6    2        0.0000000005
    8    7    7    2        0.0000000098
    8    7    8    2       -0.0060410773
    8    7    3    3       -0.0000000321
    8    7    4    3        0.0275184333
    8    7    5    3       -0.0000719487
    8    7    6    3        0.0001744075
    8    7    7    3       -0.0165965337
    8    7    8    3        0.0000000062
    8    7    4    4       -0.0000000098
    8    7    5    4        0.0000000003
    8    7    6    4       -0.0000000002
    8    7    7    4        0.0000000037
    8    7    8    4       -0.0005788661
    8    7    5    5       -0.0000000014
    8    7    6    5       -0.0000000018
    8    7    7    5       -0.0000000004
    8    7    8    5        0.0002936762
    8    7    6    6       -0.0000000016
    8    7    7    6        0.0000000004
    8    7    8    6       -0.0004255727
    8    7    7    7       -0.0000000085
    8    7    8    7        0.0299863682
    8    8    1    1        1.0482905282
    8    8    2    1        0.0051146186
    8    8    3    1       -0.0000000196
    8    8    4    1       -0.0052117373
    8    8    5    1        0.0008794428
    8    8    6    1       -0.0008538201
    8    8    7    1        0.0079497340
    8    8    8    1        0.0000000304
    8    8    2    2        0.6386195549
    8    8    3    2       -0.0000001090
    8    8    4    2        0.0115086819
    8    8    5    2       -0.0060740610
    8    8    6    2        0.0063312475
    8    8    7    2       -0.0136625992
    8    8    8    2        0.0000000344
    8    8    3    3        0.6591137085
    8    8    4    3       -0.0000000265
    8    8    5    3        0.0000000046
    8    8    6    3       -0.0000000048
    8    8    7    3        0.0000000275
    8    8    8    3       -0.1835958425
    8    8    4    4        0.5781191976
    8    8    5    4        0.0026901578
    8    8    6    4       -0.0024256019
    8    8    7    4       -0.1434485284
    8    8    8    4       -0.0000000256
    8    8    5    5        0.3980638144
    8    8    6    5        0.2220201952
    8    8    7    5       -0.0005430561
    8    8    8    5       -0.0000000069
    8    8    6    6        0.4022080721
    8    8    7    6        0.0004734974
    8    8    8    6        0.0000000071
    8    8    7    7        0.5939331018
    8    8    8    7       -0.0000000266
    8    8    8    8        0.6151581987
 end_two_electron_integrals
 enrep_tce =    5.9964406913859252     
  EHF(A)             =       -75.69048272
  EHF(total)         =       -75.69048272
  Shift (HFtot-HFA)  =         0.00000000
 Cpu & wall time / sec            1.2            1.2
 T1-number-of-tasks                   15

 t1 file size   =               15
 t1 file name   = ./H2O.t1
 t1 file handle =       -998
 T2-number-of-boxes                  315

 t2 file size   =              315
 t2 file name   = ./H2O.t2
 t2 file handle =       -996
CCSD iterations
 ---------------------------------------------------------
 Iter          Residuum       Correlation     Cpu    Wall 
 ---------------------------------------------------------
NEW TASK SCHEDULING
CCSD_T1_NTS --- OK
CCSD_T2_NTS --- OK
    1   1.0037094777687  -0.5272601722086     2.1     3.1
    2   1.4091477780249   0.9047815523417     2.2     3.1
    3  26.9153646175181   1.7733385529283     2.1     3.1
    4******************1295.9166819427739     2.3     3.1
    5************************************     2.3     3.1
 MICROCYCLE DIIS UPDATE:                    5                    5
    6   0.3053869533624  -0.0341904599078     2.2     3.1
    7   0.7272046939092  -0.1556416742671     2.3     3.1
    8   1.6465697307700   1.9400777468317     2.2     3.1
    9******************  85.1545904314404     2.2     3.1
   10************************************     2.2     3.1
 MICROCYCLE DIIS UPDATE:                   10                    5
   11   0.2034030713403  -0.1644043748428     2.3     3.1
   12   0.5768565368505  -0.4003777463791     2.3     3.1
   13   1.0450421966387   1.1894967433965     2.3     3.1
   146080.4210206596690  34.7535043622637     2.1     3.1
   15************************************     2.2     3.1
 MICROCYCLE DIIS UPDATE:                   15                    5
   16   0.1625394723257  -0.1849866253673     2.2     3.1
   17   0.4919331162778  -0.3732126376079     2.3     3.1
   18   1.1062733197236   1.2007037575644     2.3     3.1
   195937.5030636612855  33.8644632420377     2.3     3.1
   20************************************     2.2     3.1
 MICROCYCLE DIIS UPDATE:                   20                    5
   21   0.1273306935792  -0.2063098727763     2.2     3.1
   22   0.3765871395308  -0.3589455974656     2.3     3.1
   23   0.6361966645413   0.7872714716585     2.2     3.1
   24 217.9367590904943   6.0326036539151     2.2     3.1
   25************************************     2.2     3.1
 MICROCYCLE DIIS UPDATE:                   25                    5
   26   0.0993933058798  -0.2229646963864     2.3     3.1
   27   0.2844486032774  -0.3455668282045     2.2     3.1
   28   0.4569823604587   0.4650738942559     2.1     3.1
   29   0.6555835066514   0.2801755103645     2.2     3.1
   30  48.0708761384791   4.7799266529226     2.3     3.1
 MICROCYCLE DIIS UPDATE:                   30                    5
   31   0.0799155402956  -0.2336881879772     2.3     3.1
   32   0.2477932540155  -0.3315433247408     2.1     3.1
   33   0.4520665786175   0.4472563174432     2.1     3.1
   34   0.5201493544692   0.2288431480751     2.2     3.1
   35   9.8065459127175   2.6844643596244     2.3     3.1
 MICROCYCLE DIIS UPDATE:                   35                    5
   36   0.0638165853380  -0.2428931203231     2.2     3.1
   37   0.2076089779761  -0.3218926545468     2.4     3.1
   38   0.4036226116049   0.3415153764868     2.2     3.1
   39   0.4910129325351  -0.0570399851338     2.3     3.1
   40   0.4662002386176  -0.0175716838851     2.1     3.1
 MICROCYCLE DIIS UPDATE:                   40                    5
   41   0.0689329742162  -0.2396403660585     2.2     3.1
   42   0.2545748297261  -0.3195910846251     2.2     3.1
   43   0.5687821108700   0.6219044651730     2.3     3.1
   44  35.1626559668238   2.2459856521004     2.3     3.1
   45******************1628.1162862271344     2.3     3.1
 MICROCYCLE DIIS UPDATE:                   45                    5
   46   0.0605430348408  -0.2447428268107     2.3     3.1
   47   0.2200791867359  -0.3172978147362     2.3     3.1
   48   0.4662870541494   0.4635714584300     2.2     3.1
   49   0.7470748000569   0.3230458085093     2.2     3.1
   50  96.3505946799018   6.1862764407160     2.2     3.1
 MICROCYCLE DIIS UPDATE:                   50                    5
   51   0.0519201228140  -0.2499175844556     2.2     3.1
   52   0.1929436008056  -0.3130296188659     2.4     3.1
   53   0.4139857522304   0.3621861465665     2.2     3.1
   54   0.5188939838093  -0.0420945941902     2.3     3.1
   55   0.5095657573475   0.1417096173715     2.2     3.1
 MICROCYCLE DIIS UPDATE:                   55                    5
   56   0.0539482899621  -0.2494689940607     2.2     3.1
   57   0.2017587652429  -0.3145085143191     2.2     3.1
   58   0.4264720021694   0.3890460082920     2.3     3.1
   59   0.5533611698705   0.0087595063811     2.2     3.1
   60   0.6730260482750   0.3112204655848     2.3     3.1
 MICROCYCLE DIIS UPDATE:                   60                    5
   61   0.0528220270383  -0.2504932930211     2.2     3.1
   62   0.1976560913350  -0.3143292042393     2.3     3.1
   63   0.4143932960234   0.3668454280743     2.2     3.1
   64   0.5220825803690  -0.0383241838354     2.3     3.1
   65   0.5322735682417   0.1566541287274     2.3     3.1
 MICROCYCLE DIIS UPDATE:                   65                    5
   66   0.0505541289798  -0.2518948937937     2.2     3.1
   67   0.1902989931059  -0.3133625205527     2.3     3.1
   68   0.3993195039201   0.3362907910236     2.4     3.1
   69   0.5116845899556  -0.0686959593794     2.3     3.1
   70   0.4764852656683  -0.0282237082539     2.3     3.1
 MICROCYCLE DIIS UPDATE:                   70                    5
   71   0.0493928560370  -0.2525875804687     2.4     3.1
   72   0.1866611094582  -0.3128376986506     2.1     3.1
   73   0.3923254366477   0.3217395431848     2.2     3.1
   74   0.5229030917797  -0.0723618008680     2.2     3.1
   75   0.5213880798599  -0.0380772246461     2.2     3.1
 MICROCYCLE DIIS UPDATE:                   75                    5
   76   0.0478815545826  -0.2534268719963     2.1     3.1
   77   0.1812294441814  -0.3121558460447     2.3     3.1
   78   0.3817997272412   0.2998350756323     2.3     3.1
   79   0.5450422374415  -0.0662669569558     2.1     3.1
   80   0.5781731326912   0.1024941648126     2.2     3.1
 MICROCYCLE DIIS UPDATE:                   80                    5
   81   0.0450737671970  -0.2550172519091     2.2     3.1
   82   0.1690973202278  -0.3112185287168     2.2     3.1
   83   0.3553538082117   0.2444264743057     2.2     3.1
   84   0.5507976699194  -0.0008248672354     2.2     3.1
   85   1.5396411594940   1.0807027803112     2.3     3.1
 MICROCYCLE DIIS UPDATE:                   85                    5
   86   0.0414190447804  -0.2573058481166     2.3     3.1
   87   0.1478643083214  -0.3108154058534     2.4     3.1
   88   0.3038355883884   0.1312115702387     2.2     3.1
   89   0.4437285136466   0.2337825321595     2.3     3.1
   90   0.7196508532325   0.9817830927611     2.3     3.1
 MICROCYCLE DIIS UPDATE:                   90                    5
   91   0.0375871434384  -0.2600779865801     2.2     3.1
   92   0.1153927841205  -0.3095558965084     2.3     3.1
   93   0.2403384475460  -0.0388464365354     2.2     3.1
   94   0.4576991977686   0.3201731077164     2.1     3.1
   95   1.8964561300280  -0.1187445958129     2.3     3.1
 MICROCYCLE DIIS UPDATE:                   95                    5
   96   0.0177441484972  -0.2691245749383     2.3     3.1
   97   0.0482494166479  -0.2922227756715     2.4     3.1
   98   0.1280279370121  -0.1883156616415     2.1     3.1
   99   0.4891343681984  -0.0301933615602     2.3     3.1
  100   0.9355992812754   1.5880262609968     2.3     3.1
 MICROCYCLE DIIS UPDATE:                  100                    5
  101   0.0148545495676  -0.2709872406404     2.4     3.1
  102   0.0334807876592  -0.2886390542358     2.1     3.1
  103   0.0909247469899  -0.2349433963924     2.3     3.1
  104   0.3671596075043  -0.2841395870569     2.3     3.1
  105   1.7472866352341   1.4428879802125     2.2     3.1
 MICROCYCLE DIIS UPDATE:                  105                    5
  106   0.0137790688529  -0.2714463943234     2.1     3.1
  107   0.0337899268927  -0.2884766710047     2.2     3.1
  108   0.0899126755228  -0.2419821578754     2.3     3.1
  109   0.3060762100226  -0.3312195102459     2.3     3.1
  110   0.5800175767940   0.6929868030140     2.3     3.1
 MICROCYCLE DIIS UPDATE:                  110                    5
  111   0.0053098680180  -0.2752253324656     2.2     3.1
  112   0.0103926812014  -0.2805044955919     2.2     3.1
  113   0.0284170433055  -0.2667138025937     2.2     3.1
  114   0.0892060107683  -0.3025154798654     2.3     3.2
  115   0.2080437034790  -0.1113718837727     2.4     3.2
 MICROCYCLE DIIS UPDATE:                  115                    5
  116   0.0054156587768  -0.2793252900386     2.2     3.1
  117   0.0136939858560  -0.2717002090530     2.2     3.1
  118   0.0430184071287  -0.2904070075797     2.3     3.1
  119   0.1181233044105  -0.2082067798034     2.2     3.2
  120   0.4902156731815  -0.1500367105402     2.3     3.1
 MICROCYCLE DIIS UPDATE:                  120                    5
  121   0.0010875701763  -0.2767823370292     2.2     3.2
  122   0.0017645722536  -0.2774170800441     2.4     3.2
  123   0.0058183394711  -0.2749396346904     2.3     3.2
  124   0.0228332706316  -0.2831288689901     2.1     3.2
  125   0.0767320612935  -0.2327306259436     2.4     3.2
 MICROCYCLE DIIS UPDATE:                  125                    5
  126   0.0002393550460  -0.2768592482911     2.4     3.2
  127   0.0004645962709  -0.2770613913418     2.3     3.2
  128   0.0013842058531  -0.2764404688145     2.2     3.2
  129   0.0044425975193  -0.2784293821394     2.1     3.1
  130   0.0147916681484  -0.2713936947341     2.2     3.2
 MICROCYCLE DIIS UPDATE:                  130                    5
  131   0.0000510475262  -0.2769061400390     2.2     3.1
  132   0.0000731252093  -0.2769313802557     2.3     3.1
  133   0.0001998616128  -0.2768471706458     2.2     3.1
  134   0.0006613476423  -0.2771361653063     2.3     3.2
  135   0.0023375783174  -0.2761054074233     2.4     3.1
 MICROCYCLE DIIS UPDATE:                  135                    5
  136   0.0000076564915  -0.2769121999012     2.3     3.1
  137   0.0000060101368  -0.2769134557587     2.1     3.1
  138   0.0000225256101  -0.2769060640300     2.3     3.1
  139   0.0000884497936  -0.2769389200885     2.4     3.2
  140   0.0003495986061  -0.2768027156151     2.2     3.1
 MICROCYCLE DIIS UPDATE:                  140                    5
  141   0.0000008655740  -0.2769121556212     2.2     3.1
  142   0.0000013543285  -0.2769125904073     2.1     3.1
  143   0.0000032511544  -0.2769113349108     2.3     3.1
  144   0.0000082252794  -0.2769146752531     2.3     3.1
  145   0.0000210033247  -0.2769059607710     2.3     3.2
 MICROCYCLE DIIS UPDATE:                  145                    5
  146   0.0000001498221  -0.2769122622225     2.2     3.2
  147   0.0000001901704  -0.2769122850967     2.3     3.2
  148   0.0000006037550  -0.2769121005106     2.2     3.1
  149   0.0000022966764  -0.2769129541145     2.2     3.1
  150   0.0000090326166  -0.2769093874856     2.2     3.1
 MICROCYCLE DIIS UPDATE:                  150                    5
  151   0.0000000276746  -0.2769122576417     2.3     3.2
 -----------------------------------------------------------------
 Iterations converged
 CCSD correlation energy / hartree =        -0.276912257641692
 CCSD total energy / hartree       =       -75.967394975057587

 Singles contributions

 Doubles contributions
     6a   (alpha)     6a   (beta ) ---     5a   (alpha)     5a   (beta )       -0.8347225792
     6a   (alpha)     7a   (beta ) ---     4a   (alpha)     5a   (beta )        0.0242548727
     7a   (alpha)     8a   (alpha) ---     3a   (alpha)     4a   (alpha)        0.0335313193
     7a   (alpha)     6a   (beta ) ---     5a   (alpha)     4a   (beta )        0.0242548727
     7a   (alpha)     7a   (beta ) ---     4a   (alpha)     4a   (beta )       -0.0938443720
     7a   (alpha)     8a   (beta ) ---     4a   (alpha)     3a   (beta )       -0.0428531093
     8a   (alpha)     7a   (beta ) ---     3a   (alpha)     4a   (beta )       -0.0428531093
     8a   (alpha)     8a   (beta ) ---     3a   (alpha)     3a   (beta )       -0.0595712212
 Ground state specification:
 exp(T)|Ref>~(1+T)|Ref>
 ------- a(p)+/a(q) strings ----------

 singles norm

 doubles norm

 Reference string
  0.76769650411333312      :(1a)+ (2a)+ (3a)+ (4a)+ (5a)+ (1b)+ (2b)+ (3b)+ (4b)+ (5b)+ |0>

 Singles strings

 Doubles strings
 -0.64081360595119008      :(6a)+ (6b)+ (5b)  (5a)  (1a)+ (2a)+ (3a)+ (4a)+ (5a)+ (1b)+ (2b)+ (3b)+ (4b)+ (5b)+ |0>
 -------------------------------------

 Parallel integral file used      14 records with       0 large values


 Task  times  cpu:      342.8s     wall:      478.3s


                                NWChem Input Module
                                -------------------


 Summary of allocated global arrays
-----------------------------------
  No active global arrays


MA_summarize_allocated_blocks: starting scan ...
MA_summarize_allocated_blocks: scan completed: 0 heap blocks, 0 stack blocks
MA usage statistics:

	allocation statistics:
					      heap	     stack
					      ----	     -----
	current number of blocks	         0	         0
	maximum number of blocks	        18	        42
	current total bytes		         0	         0
	maximum total bytes		  25775928	  38234424
	maximum total K-bytes		     25776	     38235
	maximum total M-bytes		        26	        39


                                     CITATION
                                     --------
                Please cite the following reference when publishing
                           results obtained with NWChem:

          E. Apra, E. J. Bylaska, W. A. de Jong, N. Govind, K. Kowalski,
       T. P. Straatsma, M. Valiev, H. J. J. van Dam, Y. Alexeev, J. Anchell,
       V. Anisimov, F. W. Aquino, R. Atta-Fynn, J. Autschbach, N. P. Bauman,
     J. C. Becca, D. E. Bernholdt, K. Bhaskaran-Nair, S. Bogatko, P. Borowski,
         J. Boschen, J. Brabec, A. Bruner, E. Cauet, Y. Chen, G. N. Chuev,
      C. J. Cramer, J. Daily, M. J. O. Deegan, T. H. Dunning Jr., M. Dupuis,
   K. G. Dyall, G. I. Fann, S. A. Fischer, A. Fonari, H. Fruchtl, L. Gagliardi,
      J. Garza, N. Gawande, S. Ghosh, K. Glaesemann, A. W. Gotz, J. Hammond,
       V. Helms, E. D. Hermes, K. Hirao, S. Hirata, M. Jacquelin, L. Jensen,
   B. G. Johnson, H. Jonsson, R. A. Kendall, M. Klemm, R. Kobayashi, V. Konkov,
      S. Krishnamoorthy, M. Krishnan, Z. Lin, R. D. Lins, R. J. Littlefield,
      A. J. Logsdail, K. Lopata, W. Ma, A. V. Marenich, J. Martin del Campo,
   D. Mejia-Rodriguez, J. E. Moore, J. M. Mullin, T. Nakajima, D. R. Nascimento,
    J. A. Nichols, P. J. Nichols, J. Nieplocha, A. Otero-de-la-Roza, B. Palmer,
    A. Panyala, T. Pirojsirikul, B. Peng, R. Peverati, J. Pittner, L. Pollack,
   R. M. Richard, P. Sadayappan, G. C. Schatz, W. A. Shelton, D. W. Silverstein,
   D. M. A. Smith, T. A. Soares, D. Song, M. Swart, H. L. Taylor, G. S. Thomas,
            V. Tipparaju, D. G. Truhlar, K. Tsemekhman, T. Van Voorhis,
      A. Vazquez-Mayagoitia, P. Verma, O. Villa, A. Vishnu, K. D. Vogiatzis,
        D. Wang, J. H. Weare, M. J. Williamson, T. L. Windus, K. Wolinski,
        A. T. Wong, Q. Wu, C. Yang, Q. Yu, M. Zacharias, Z. Zhang, Y. Zhao,
                                and R. J. Harrison
                        "NWChem: Past, present, and future
                         J. Chem. Phys. 152, 184102 (2020)
                               doi:10.1063/5.0004997

                                      AUTHORS
                                      -------
  E. Apra, E. J. Bylaska, N. Govind, K. Kowalski, M. Valiev, D. Mejia-Rodriguez,
       A. Kunitsa, N. P. Bauman, A. Panyala, W. A. de Jong, T. P. Straatsma,
        H. J. J. van Dam, D. Wang, T. L. Windus, J. Hammond, J. Autschbach,
    K. Bhaskaran-Nair, J. Brabec, K. Lopata, S. A. Fischer, S. Krishnamoorthy,
     M. Jacquelin, W. Ma, M. Klemm, O. Villa, Y. Chen, V. Anisimov, F. Aquino,
    S. Hirata, M. T. Hackler, Eric Hermes, L. Jensen, J. E. Moore, J. C. Becca,
      V. Konjkov, T. Risthaus, M. Malagoli, A. Marenich, A. Otero-de-la-Roza,
        J. Mullin, P. Nichols, R. Peverati, J. Pittner, Y. Zhao, P.-D. Fan,
        A. Fonari, M. J. Williamson, R. J. Harrison, J. R. Rehr, M. Dupuis,
     D. Silverstein, D. M. A. Smith, J. Nieplocha, V. Tipparaju, M. Krishnan,
     B. E. Van Kuiken, A. Vazquez-Mayagoitia, M. Swart, Q. Wu, T. Van Voorhis,
     A. A. Auer, M. Nooijen, L. D. Crosby, E. Brown, G. Cisneros, G. I. Fann,
   H. Fruchtl, J. Garza, K. Hirao, R. A. Kendall, J. A. Nichols, K. Tsemekhman,
    K. Wolinski, J. Anchell, D. E. Bernholdt, P. Borowski, T. Clark, D. Clerc,
   H. Dachsel, M. J. O. Deegan, K. Dyall, D. Elwood, E. Glendening, M. Gutowski,
   A. C. Hess, J. Jaffe, B. G. Johnson, J. Ju, R. Kobayashi, R. Kutteh, Z. Lin,
   R. Littlefield, X. Long, B. Meng, T. Nakajima, S. Niu, L. Pollack, M. Rosing,
   K. Glaesemann, G. Sandrone, M. Stave, H. Taylor, G. Thomas, J. H. van Lenthe,
                               A. T. Wong, Z. Zhang.

 Total times  cpu:      347.5s     wall:      486.7s
