 argument  1 = input.nw
  NWChem w/ OpenMP: maximum threads =    1



============================== echo of input deck ==============================
 echo
 start H2O
 title "H2O"

 memory total 24 gb

 geometry units bohr
 symmetry c1
        O  0.00000000  0.00000000  0.00000000
        H  0.00000000  5.456612  0.00000000
        H  1.72558000 -0.64860000  0.00000000
 end

 basis spherical
   * library cc-pVTZ
 end

 mcscf
   active  8
   actelec 10
   multiplicity 1
   maxiter 40
   vectors input h2o.mos
   vectors output h2o.mos
 end

 task mcscf

 scf
   vectors input h2o.mos
   vectors output h2o-trash.mos
   noscf
 end

 tce
   2eorb
   2emet 13
   ccsd
   maxiter 300
 end

 set tce:print_integrals T
 set tce:qorb 8
 set tce:qela 5
 set tce:qelb 5

# set tce:qducc T
# set tce:nactv 3
# set tce:nonhf T
# set tce:ducc_model 6

 set tce:printtol 0.02

 task tce
================================================================================


                                         
                                         


             Northwest Computational Chemistry Package (NWChem) 7.0.1
             --------------------------------------------------------


                    Environmental Molecular Sciences Laboratory
                       Pacific Northwest National Laboratory
                                Richland, WA 99352

                              Copyright (c) 1994-2020
                       Pacific Northwest National Laboratory
                            Battelle Memorial Institute

             NWChem is an open-source computational chemistry package
                        distributed under the terms of the
                      Educational Community License (ECL) 2.0
             A copy of the license is included with this distribution
                              in the LICENSE.TXT file

                                  ACKNOWLEDGMENT
                                  --------------

            This software and its documentation were developed at the
            EMSL at Pacific Northwest National Laboratory, a multiprogram
            national laboratory, operated for the U.S. Department of Energy
            by Battelle under Contract Number DE-AC05-76RL01830. Support
            for this work was provided by the Department of Energy Office
            of Biological and Environmental Research, Office of Basic
            Energy Sciences, and the Office of Advanced Scientific Computing.


           Job information
           ---------------

    hostname        = WE46210
    program         = /home/baum612/code/nwchem/bin/LINUX64/nwchem
    date            = Thu May  2 15:52:42 2024

    compiled        = Tue_Apr_30_12:43:26_2024
    source          = /home/baum612/code/nwchem
    nwchem branch   = 7.0.0
    nwchem revision = nwchem_on_git-4191-g39d87d64de
    ga revision     = 5.8.1
    use scalapack   = F
    input           = input.nw
    prefix          = H2O.
    data base       = ./H2O.db
    status          = startup
    nproc           =        1
    time left       =     -1s



           Memory information
           ------------------

    heap     =  805306362 doubles =   6144.0 Mbytes
    stack    =  805306367 doubles =   6144.0 Mbytes
    global   = 1610612736 doubles =  12288.0 Mbytes (distinct from heap & stack)
    total    = 3221225465 doubles =  24576.0 Mbytes
    verify   = yes
    hardfail = no 


           Directory information
           ---------------------

  0 permanent = .
  0 scratch   = .




                                NWChem Input Module
                                -------------------


                                        H2O
                                        ---
 Turning off AUTOSYM since
 SYMMETRY directive was detected!


          ------
          auto-z
          ------
  autoz: The atoms group into disjoint clusters
 cluster   1:    1    3
 cluster   2:    2
 Connecting clusters   1   2 via atoms    1    2 r = 2.89
  autoz: regenerating connections with new bonds
  no constraints, skipping    0.0000000000000000     
  no constraints, skipping    0.0000000000000000     


                             Geometry "geometry" -> ""
                             -------------------------

 Output coordinates in a.u. (scale by  1.000000000 to convert to a.u.)

  No.       Tag          Charge          X              Y              Z
 ---- ---------------- ---------- -------------- -------------- --------------
    1 O                    8.0000    -0.17255800    -0.48080120     0.00000000
    2 H                    1.0000    -0.17255800     4.97581080     0.00000000
    3 H                    1.0000     1.55302200    -1.12940120     0.00000000

      Atomic Mass 
      ----------- 

      O                 15.994910
      H                  1.007825


 Effective nuclear repulsion energy (a.u.)       5.9634197778

            Nuclear Dipole moment (a.u.) 
            ----------------------------
        X                 Y               Z
 ---------------- ---------------- ----------------
    -0.0000000000    -0.0000000000     0.0000000000



                                Z-matrix (autoz)
                                -------- 

 Units are Angstrom for bonds and degrees for angles

      Type          Name      I     J     K     L     M      Value
      ----------- --------  ----- ----- ----- ----- ----- ----------
    1 Stretch                  1     2                       2.88751
    2 Stretch                  1     3                       0.97551
    3 Bend                     2     1     3               110.59992


            XYZ format geometry
            -------------------
     3
 geometry
 O                    -0.09131377    -0.25442906     0.00000000
 H                    -0.09131377     2.63308587     0.00000000
 H                     0.82182391    -0.59765342     0.00000000

 ==============================================================================
                                internuclear distances
 ------------------------------------------------------------------------------
       center one      |      center two      | atomic units |       a.u.
 ------------------------------------------------------------------------------
    3 H                |   1 O                |     1.84345  |     1.84345
 ------------------------------------------------------------------------------
                         number of included internuclear distances:          1
 ==============================================================================





 Summary of "ao basis" -> "" (spherical)
 ------------------------------------------------------------------------------
       Tag                 Description            Shells   Functions and Types
 ---------------- ------------------------------  ------  ---------------------
 *                          cc-pVTZ                   on all atoms 


                      Basis "ao basis" -> "ao basis" (spherical)
                      -----
  O (Oxygen)
  ----------
            Exponent  Coefficients 
       -------------- ---------------------------------------------------------
  1 S  1.53300000E+04  0.000508
  1 S  2.29900000E+03  0.003929
  1 S  5.22400000E+02  0.020243
  1 S  1.47300000E+02  0.079181
  1 S  4.75500000E+01  0.230687
  1 S  1.67600000E+01  0.433118
  1 S  6.20700000E+00  0.350260
  1 S  6.88200000E-01 -0.008154

  2 S  1.53300000E+04 -0.000115
  2 S  2.29900000E+03 -0.000895
  2 S  5.22400000E+02 -0.004636
  2 S  1.47300000E+02 -0.018724
  2 S  4.75500000E+01 -0.058463
  2 S  1.67600000E+01 -0.136463
  2 S  6.20700000E+00 -0.175740
  2 S  6.88200000E-01  0.603418

  3 S  1.75200000E+00  1.000000

  4 S  2.38400000E-01  1.000000

  5 P  3.44600000E+01  0.015928
  5 P  7.74900000E+00  0.099740
  5 P  2.28000000E+00  0.310492

  6 P  7.15600000E-01  1.000000

  7 P  2.14000000E-01  1.000000

  8 D  2.31400000E+00  1.000000

  9 D  6.45000000E-01  1.000000

 10 F  1.42800000E+00  1.000000

  H (Hydrogen)
  ------------
            Exponent  Coefficients 
       -------------- ---------------------------------------------------------
  1 S  3.38700000E+01  0.006068
  1 S  5.09500000E+00  0.045308
  1 S  1.15900000E+00  0.202822

  2 S  3.25800000E-01  1.000000

  3 S  1.02700000E-01  1.000000

  4 P  1.40700000E+00  1.000000

  5 P  3.88000000E-01  1.000000

  6 D  1.05700000E+00  1.000000



 Summary of "ao basis" -> "ao basis" (spherical)
 ------------------------------------------------------------------------------
       Tag                 Description            Shells   Functions and Types
 ---------------- ------------------------------  ------  ---------------------
 O                          cc-pVTZ                 10       30   4s3p2d1f
 H                          cc-pVTZ                  6       14   3s2p1d



                            NWChem Direct MCSCF Module
                            --------------------------


                                        H2O


     -----------------------------------
       Basis functions:             58
       Inactive shells:              0
       Active shells:                8
       Active electrons:            10
       Symmetry:                    a       
       Multiplicity:                 1
       Orbital rotations:          400
     -----------------------------------

     -----------------------------------
       E2 extrapolation:             F
       Conjugacy:                    T
       Micro CI relax:               T
       Canonical orbitals:           T
       Maximum iterations:          40
       Converge threshold:    1.00E-04
       Conjugacy resets:            20
       Initial levelshift:        0.10
     -----------------------------------

 Loading old vectors from job with title :

H2O


   input molecular orbitals = ./h2o.mos
  output molecular orbtials = ./h2o.mos

       No. of determinants:          3136


  Starting Orbital Energies
   -20.611083    -1.307545    -0.672830    -0.549976    -0.339487    -0.232530
    -0.026097    -0.012755     0.274156     0.415243     0.640139     0.690949
     0.788423     0.800815     0.839080     0.886030     0.970448     1.121388
     1.342604     1.711418     1.715449     2.028409     2.031069     2.142655
     2.554659     2.740007     3.459993     3.461607     3.461717     3.463380
     3.464345     3.481945     3.481986     3.514341     3.741534     3.872453
     3.886371     3.895604     3.928464     4.011051     4.092156     4.392236
     4.430209     4.717432     5.092592     5.536045     5.536179     5.792979
     5.793469     6.699286     6.702145     6.803967     6.831198     6.856270
     7.026016     7.054683     7.498074    10.776618

  Orbital Symmetry Irreps
a    a    a    a    a    a    a    a    a    a    a    a    a    a    a   
a    a    a    a    a    a    a    a    a    a    a    a    a    a    a   
a    a    a    a    a    a    a    a    a    a    a    a    a    a    a   
a    a    a    a    a    a    a    a    a    a    a    a    a   

 Integral file          = ./H2O.aoints.0
 Record size in doubles =  65536        No. of integs per rec  =  43688
 Max. records in memory =     49        Max. records in file   = 250647
 No. of bits per label  =      8        No. of bits per value  =     64


 #quartets = 2.929D+04 #integrals = 5.063D+05 #direct =  0.0% #cached =100.0%




          %%%%% MacroIteration   1 %%%%%


          Number of sigma calls:       22
                       o<<<<< (aa):             0.00
                       o<<<<< (bb):             0.00
                       o<<<<< (ab):             0.05
                       o<<<<< (total)           0.05
                       o<<<<< (aa) ff           0.00
                       o<<<<< (aa) gop          0.00
                       o<<<<< (aa) dot          0.00
                       o<<<<< (ab) str          0.00
                       o<<<<< (ab) gath         0.00
                       o<<<<< (ab) dotab        0.00
                       o<<<<< (ab) scat         0.00
                       o<<<<< (ab) sync         0.00
                       o<<<<< Density           0.00
                       o<<<<< Density one       0.00
                       o<<<<< Density two       0.00
                       o<<<<< Density ab        0.00
                       o<<<<< Spin adapt        0.28
                       o<<<<< Symm adapt        0.00

                       o<<<<< (ab) max sync:      0.00

           >>>| Valence CI:            -81.931106900522
           >>>| MCSCF energy:          -75.967687122736
           >>>| Gradient norm:          0.124022681D-02
     --- Warning:    2 Hessian diagonals < 0.05 ---

                              ----- Line search ------

        step       energy         lsg     num-lsg   num-lsh   lsrat    time
      ------- ---------------- --------- --------- --------- ------- --------
       0.0000     -75.96768712 -4.18D-07  0.00D+00  0.00D+00 0.0D+00      0.9

          Number of sigma calls:       21
                       o<<<<< (aa):             0.00
                       o<<<<< (bb):             0.00
                       o<<<<< (ab):             0.05
                       o<<<<< (total)           0.05
                       o<<<<< (aa) ff           0.00
                       o<<<<< (aa) gop          0.00
                       o<<<<< (aa) dot          0.00
                       o<<<<< (ab) str          0.00
                       o<<<<< (ab) gath         0.00
                       o<<<<< (ab) dotab        0.00
                       o<<<<< (ab) scat         0.00
                       o<<<<< (ab) sync         0.00
                       o<<<<< Density           0.01
                       o<<<<< Density one       0.00
                       o<<<<< Density two       0.00
                       o<<<<< Density ab        0.01
                       o<<<<< Spin adapt        0.31
                       o<<<<< Symm adapt        0.00

                       o<<<<< (ab) max sync:      0.00
       1.0000     -75.96768735 -4.38D-08 -4.38D-08  3.74D-07 1.0D-01      1.3

          Number of sigma calls:       16
                       o<<<<< (aa):             0.00
                       o<<<<< (bb):             0.00
                       o<<<<< (ab):             0.03
                       o<<<<< (total)           0.04
                       o<<<<< (aa) ff           0.00
                       o<<<<< (aa) gop          0.00
                       o<<<<< (aa) dot          0.00
                       o<<<<< (ab) str          0.00
                       o<<<<< (ab) gath         0.00
                       o<<<<< (ab) dotab        0.00
                       o<<<<< (ab) scat         0.00
                       o<<<<< (ab) sync         0.00
                       o<<<<< Density           0.00
                       o<<<<< Density one       0.00
                       o<<<<< Density two       0.00
                       o<<<<< Density ab        0.00
                       o<<<<< Spin adapt        0.27
                       o<<<<< Symm adapt        0.00

                       o<<<<< (ab) max sync:      0.00
       1.1172     -75.96768736  6.15D-12 -4.38D-13  3.74D-07 1.5D-05      1.7
     --- Orbitals canonicalized ---



          %%%%% MacroIteration   2 %%%%%


          Number of sigma calls:       21
                       o<<<<< (aa):             0.00
                       o<<<<< (bb):             0.01
                       o<<<<< (ab):             0.06
                       o<<<<< (total)           0.07
                       o<<<<< (aa) ff           0.00
                       o<<<<< (aa) gop          0.00
                       o<<<<< (aa) dot          0.00
                       o<<<<< (ab) str          0.00
                       o<<<<< (ab) gath         0.00
                       o<<<<< (ab) dotab        0.00
                       o<<<<< (ab) scat         0.00
                       o<<<<< (ab) sync         0.00
                       o<<<<< Density           0.01
                       o<<<<< Density one       0.00
                       o<<<<< Density two       0.00
                       o<<<<< Density ab        0.01
                       o<<<<< Spin adapt        0.39
                       o<<<<< Symm adapt        0.00

                       o<<<<< (ab) max sync:      0.00

           >>>| Valence CI:            -81.931107133892
           >>>| MCSCF energy:          -75.967687356106
           >>>| Gradient norm:          0.145790546D-03
     --- Warning:    5 Hessian diagonals < 0.05 ---
     --- Conjugacy reset ---

                              ----- Line search ------

        step       energy         lsg     num-lsg   num-lsh   lsrat    time
      ------- ---------------- --------- --------- --------- ------- --------
       0.0000     -75.96768736 -5.90D-09  0.00D+00  0.00D+00 0.0D+00      2.3

          Number of sigma calls:       12
                       o<<<<< (aa):             0.00
                       o<<<<< (bb):             0.00
                       o<<<<< (ab):             0.03
                       o<<<<< (total)           0.03
                       o<<<<< (aa) ff           0.00
                       o<<<<< (aa) gop          0.00
                       o<<<<< (aa) dot          0.00
                       o<<<<< (ab) str          0.00
                       o<<<<< (ab) gath         0.00
                       o<<<<< (ab) dotab        0.00
                       o<<<<< (ab) scat         0.00
                       o<<<<< (ab) sync         0.00
                       o<<<<< Density           0.01
                       o<<<<< Density one       0.00
                       o<<<<< Density two       0.00
                       o<<<<< Density ab        0.01
                       o<<<<< Spin adapt        0.16
                       o<<<<< Symm adapt        0.00

                       o<<<<< (ab) max sync:      0.00
       1.0000     -75.96768736 -8.77D-10 -8.80D-10  5.02D-09 1.5D-01      2.6

          Number of sigma calls:       10
                       o<<<<< (aa):             0.00
                       o<<<<< (bb):             0.00
                       o<<<<< (ab):             0.03
                       o<<<<< (total)           0.03
                       o<<<<< (aa) ff           0.00
                       o<<<<< (aa) gop          0.00
                       o<<<<< (aa) dot          0.00
                       o<<<<< (ab) str          0.00
                       o<<<<< (ab) gath         0.00
                       o<<<<< (ab) dotab        0.00
                       o<<<<< (ab) scat         0.00
                       o<<<<< (ab) sync         0.00
                       o<<<<< Density           0.00
                       o<<<<< Density one       0.00
                       o<<<<< Density two       0.00
                       o<<<<< Density ab        0.00
                       o<<<<< Spin adapt        0.16
                       o<<<<< Symm adapt        0.00

                       o<<<<< (ab) max sync:      0.00
       1.1747     -75.96768736  7.48D-13  2.39D-12  5.03D-09 1.3D-04      2.9



          %%%%% MacroIteration   3 %%%%%


          Number of sigma calls:        1
                       o<<<<< (aa):             0.00
                       o<<<<< (bb):             0.00
                       o<<<<< (ab):             0.00
                       o<<<<< (total)           0.00
                       o<<<<< (aa) ff           0.00
                       o<<<<< (aa) gop          0.00
                       o<<<<< (aa) dot          0.00
                       o<<<<< (ab) str          0.00
                       o<<<<< (ab) gath         0.00
                       o<<<<< (ab) dotab        0.00
                       o<<<<< (ab) scat         0.00
                       o<<<<< (ab) sync         0.00
                       o<<<<< Density           0.01
                       o<<<<< Density one       0.00
                       o<<<<< Density two       0.00
                       o<<<<< Density ab        0.01
                       o<<<<< Spin adapt        0.00
                       o<<<<< Symm adapt        0.00

                       o<<<<< (ab) max sync:      0.00

           >>>| Valence CI:            -81.931107137360
           >>>| MCSCF energy:          -75.967687359574
           >>>| Gradient norm:          0.251912253D-04




     ==============================
            MCSCF Converged
     ==============================



          Canonical Eigenvalues

              1      
    1  -20.6111
    2   -1.3075
    3   -0.6728
    4   -0.5500
    5   -0.3387
    6   -0.2333
    7   -0.0261
    8   -0.0128
    9    0.2739
   10    0.4150
   11    0.6406
   12    0.6923
   13    0.7886
   14    0.8001
   15    0.8388
   16    0.8857
   17    0.9683
   18    1.1186
   19    1.3425
   20    1.7114
   21    1.7151
   22    2.0284
   23    2.0310
   24    2.1426
   25    2.5547
   26    2.7399
   27    3.4602
   28    3.4617
   29    3.4618
   30    3.4633
   31    3.4642
   32    3.4819
   33    3.4819
   34    3.5141
   35    3.7414
   36    3.8719
   37    3.8868
   38    3.8954
   39    3.9279
   40    4.0110
   41    4.0888
   42    4.3922
   43    4.4296
   44    4.7173
   45    5.0916
   46    5.5360
   47    5.5362
   48    5.7930
   49    5.7934
   50    6.6993
   51    6.7019
   52    6.8040
   53    6.8312
   54    6.8558
   55    7.0260
   56    7.0547
   57    7.4979
   58   10.7762


          Converged CI vector

   Index           Coefficient          Config. Occupation
         1          0.52386934          1  2  3  4  5  1  2  3  4  5
         2          0.51410552          1  2  3  4  5  1  2  3  4  6
        23          0.02958371          1  2  3  4  5  1  2  3  5  8
        27          0.02874990          1  2  3  4  5  1  2  3  6  8
        13         -0.02006300          1  2  3  4  5  1  2  4  6  7
        57          0.51410552          1  2  3  4  6  1  2  3  4  5
        58         -0.41104817          1  2  3  4  6  1  2  3  4  6
        83         -0.02629282          1  2  3  4  6  1  2  3  6  8
      1233          0.02958371          1  2  3  5  8  1  2  3  4  5
      1255         -0.03002976          1  2  3  5  8  1  2  3  5  8
      1259         -0.03002248          1  2  3  5  8  1  2  3  6  8
      1457          0.02874990          1  2  3  6  8  1  2  3  4  5
      1458         -0.02629282          1  2  3  6  8  1  2  3  4  6
      1479         -0.03002248          1  2  3  6  8  1  2  3  5  8
      1483          0.02431329          1  2  3  6  8  1  2  3  6  8
       457         -0.04002909          1  2  4  5  7  1  2  4  5  7
       461         -0.03969244          1  2  4  5  7  1  2  4  6  7
       673         -0.02006300          1  2  4  6  7  1  2  3  4  5
       681         -0.03969244          1  2  4  6  7  1  2  4  5  7
       685          0.03190962          1  2  4  6  7  1  2  4  6  7

          Number of sigma calls:        1
                       o<<<<< (aa):             0.00
                       o<<<<< (bb):             0.00
                       o<<<<< (ab):             0.00
                       o<<<<< (total)           0.00
                       o<<<<< (aa) ff           0.00
                       o<<<<< (aa) gop          0.00
                       o<<<<< (aa) dot          0.00
                       o<<<<< (ab) str          0.00
                       o<<<<< (ab) gath         0.00
                       o<<<<< (ab) dotab        0.00
                       o<<<<< (ab) scat         0.00
                       o<<<<< (ab) sync         0.00
                       o<<<<< Density           0.00
                       o<<<<< Density one       0.00
                       o<<<<< Density two       0.00
                       o<<<<< Density ab        0.00
                       o<<<<< Spin adapt        0.00
                       o<<<<< Symm adapt        0.00

                       o<<<<< (ab) max sync:      0.00



          Natural orbital occupation numbers

              1      
    1    2.0000
    2    1.9989
    3    1.9855
    4    1.9749
    5    1.1601
    6    0.8400
    7    0.0263
    8    0.0144


          Number of sigma calls:       22
                       o<<<<< (aa):             0.00
                       o<<<<< (bb):             0.00
                       o<<<<< (ab):             0.06
                       o<<<<< (total)           0.06
                       o<<<<< (aa) ff           0.00
                       o<<<<< (aa) gop          0.00
                       o<<<<< (aa) dot          0.00
                       o<<<<< (ab) str          0.00
                       o<<<<< (ab) gath         0.00
                       o<<<<< (ab) dotab        0.00
                       o<<<<< (ab) scat         0.00
                       o<<<<< (ab) sync         0.00
                       o<<<<< Density           0.01
                       o<<<<< Density one       0.00
                       o<<<<< Density two       0.00
                       o<<<<< Density ab        0.01
                       o<<<<< Spin adapt        0.32
                       o<<<<< Symm adapt        0.00

                       o<<<<< (ab) max sync:      0.00


       Final MCSCF results 
       ------------------- 

       Total MCSCF energy =    -75.967687359573
            Gradient norm =      2.5D-05

    CPU time for solution =      3.4s
   Wall time for solution =      6.5s



                        Analysis of MCSCF natural orbitals
                        ----------------------------------

 Vector    1  Occ=1.999992D+00  E=-2.061105D+01  Symmetry=a
              MO Center= -9.1D-02, -2.5D-01, -6.4D-14, r^2= 1.5D-02
   Bfn.  Coefficient  Atom+Function         Bfn.  Coefficient  Atom+Function  
  ----- ------------  ---------------      ----- ------------  ---------------
     1      0.973714  1 O  s          

 Vector    2  Occ=1.998898D+00  E=-1.307540D+00  Symmetry=a
              MO Center= -2.6D-01, -1.9D-01,  6.2D-11, r^2= 4.2D-01
   Bfn.  Coefficient  Atom+Function         Bfn.  Coefficient  Atom+Function  
  ----- ------------  ---------------      ----- ------------  ---------------
     2      0.552381  1 O  s                  4      0.401306  1 O  s          
     3      0.154252  1 O  s          

 Vector    3  Occ=1.985531D+00  E=-6.728241D-01  Symmetry=a
              MO Center= -6.2D-02, -2.7D-01, -6.1D-11, r^2= 6.2D-01
   Bfn.  Coefficient  Atom+Function         Bfn.  Coefficient  Atom+Function  
  ----- ------------  ---------------      ----- ------------  ---------------
    10      0.448785  1 O  pz                13      0.378160  1 O  pz         
     7      0.369697  1 O  pz         

 Vector    4  Occ=1.974851D+00  E=-5.499731D-01  Symmetry=a
              MO Center=  3.3D-01, -4.1D-01, -1.9D-12, r^2= 5.8D-01
   Bfn.  Coefficient  Atom+Function         Bfn.  Coefficient  Atom+Function  
  ----- ------------  ---------------      ----- ------------  ---------------
     8      0.329062  1 O  px                46      0.284895  3 H  s          
     5      0.274593  1 O  px                45      0.188594  3 H  s          
    11      0.176474  1 O  px         

 Vector    5  Occ=1.160083D+00  E=-3.387358D-01  Symmetry=a
              MO Center= -7.6D-02,  1.2D+00, -2.7D-13, r^2= 2.8D+00
   Bfn.  Coefficient  Atom+Function         Bfn.  Coefficient  Atom+Function  
  ----- ------------  ---------------      ----- ------------  ---------------
    32      0.341596  2 H  s                  9      0.315943  1 O  py         
    33      0.272530  2 H  s                  6      0.246051  1 O  py         
    12      0.211685  1 O  py                31      0.163090  2 H  s          

 Vector    6  Occ=8.399923D-01  E=-2.333368D-01  Symmetry=a
              MO Center= -8.1D-02,  1.2D+00, -5.6D-13, r^2= 2.8D+00
   Bfn.  Coefficient  Atom+Function         Bfn.  Coefficient  Atom+Function  
  ----- ------------  ---------------      ----- ------------  ---------------
    32     -0.369981  2 H  s                  9      0.336733  1 O  py         
    33     -0.271736  2 H  s                  6      0.261181  1 O  py         
    12      0.214532  1 O  py                31     -0.173563  2 H  s          

 Vector    7  Occ=2.629599D-02  E=-2.609567D-02  Symmetry=a
              MO Center=  5.1D-01, -4.8D-01, -5.9D-13, r^2= 5.9D-01
   Bfn.  Coefficient  Atom+Function         Bfn.  Coefficient  Atom+Function  
  ----- ------------  ---------------      ----- ------------  ---------------
    46      0.706389  3 H  s                  5     -0.475925  1 O  px         
     8     -0.417717  1 O  px                45      0.351969  3 H  s          
     2     -0.290152  1 O  s                  4     -0.256079  1 O  s          
     6      0.177125  1 O  py                 9      0.155744  1 O  py         

 Vector    8  Occ=1.435562D-02  E=-1.275240D-02  Symmetry=a
              MO Center=  5.5D-02, -3.1D-01, -8.0D-11, r^2= 1.2D+00
   Bfn.  Coefficient  Atom+Function         Bfn.  Coefficient  Atom+Function  
  ----- ------------  ---------------      ----- ------------  ---------------
    13      0.796473  1 O  pz                 7     -0.646604  1 O  pz         
    10     -0.264744  1 O  pz                53      0.173450  3 H  pz         

 Vector    9  Occ=0.000000D+00  E= 2.738690D-01  Symmetry=a
              MO Center=  1.0D+00, -5.9D-01,  3.3D-11, r^2= 3.9D+00
   Bfn.  Coefficient  Atom+Function         Bfn.  Coefficient  Atom+Function  
  ----- ------------  ---------------      ----- ------------  ---------------
    47      1.896700  3 H  s                  4     -1.202379  1 O  s          
    11     -0.532395  1 O  px                51     -0.399891  3 H  px         
    46     -0.257496  3 H  s                 32     -0.210857  2 H  s          
    12      0.174205  1 O  py                52      0.158735  3 H  py         
    33      0.151418  2 H  s          

 Vector   10  Occ=0.000000D+00  E= 4.150462D-01  Symmetry=a
              MO Center= -5.3D-02,  2.6D+00, -2.6D-13, r^2= 3.7D+00
   Bfn.  Coefficient  Atom+Function         Bfn.  Coefficient  Atom+Function  
  ----- ------------  ---------------      ----- ------------  ---------------
    33      1.612016  2 H  s                 32     -1.351101  2 H  s          
    47     -0.520652  3 H  s                 46      0.223371  3 H  s          
     4      0.165911  1 O  s          

 Vector   11  Occ=0.000000D+00  E= 6.406363D-01  Symmetry=a
              MO Center= -6.1D-01,  3.3D-01, -4.1D-12, r^2= 2.6D+00
   Bfn.  Coefficient  Atom+Function         Bfn.  Coefficient  Atom+Function  
  ----- ------------  ---------------      ----- ------------  ---------------
    46      2.837863  3 H  s                  4     -2.216285  1 O  s          
    11     -2.196728  1 O  px                12      0.959937  1 O  py         
    51     -0.861164  3 H  px                52      0.274294  3 H  py         
    47      0.262812  3 H  s                 38     -0.253086  2 H  py         
    37     -0.203232  2 H  px                33     -0.199752  2 H  s          

 Vector   12  Occ=0.000000D+00  E= 6.923115D-01  Symmetry=a
              MO Center= -1.6D-01,  1.2D+00, -4.3D-13, r^2= 3.4D+00
   Bfn.  Coefficient  Atom+Function         Bfn.  Coefficient  Atom+Function  
  ----- ------------  ---------------      ----- ------------  ---------------
    11      1.018672  1 O  px                 4      1.009004  1 O  s          
    46     -0.948985  3 H  s                 38     -0.659742  2 H  py         
    12      0.572374  1 O  py                 9     -0.507879  1 O  py         
    51      0.307619  3 H  px                52     -0.295885  3 H  py         
    47     -0.257419  3 H  s          

 Vector   13  Occ=0.000000D+00  E= 7.886153D-01  Symmetry=a
              MO Center= -6.9D-02,  2.5D+00,  8.2D-13, r^2= 1.3D+00
   Bfn.  Coefficient  Atom+Function         Bfn.  Coefficient  Atom+Function  
  ----- ------------  ---------------      ----- ------------  ---------------
    39      1.040348  2 H  pz                53     -0.232304  3 H  pz         
    13      0.155090  1 O  pz         

 Vector   14  Occ=0.000000D+00  E= 8.001291D-01  Symmetry=a
              MO Center= -1.3D-01,  2.5D+00, -1.0D-12, r^2= 1.5D+00
   Bfn.  Coefficient  Atom+Function         Bfn.  Coefficient  Atom+Function  
  ----- ------------  ---------------      ----- ------------  ---------------
    37      1.029397  2 H  px                46      0.633171  3 H  s          
    11     -0.574020  1 O  px                 4     -0.472402  1 O  s          
    51     -0.154580  3 H  px         

 Vector   15  Occ=0.000000D+00  E= 8.388476D-01  Symmetry=a
              MO Center=  6.8D-01, -2.6D-01,  8.3D-13, r^2= 2.1D+00
   Bfn.  Coefficient  Atom+Function         Bfn.  Coefficient  Atom+Function  
  ----- ------------  ---------------      ----- ------------  ---------------
    52      1.003083  3 H  py                 4     -0.646910  1 O  s          
    46      0.478323  3 H  s                  9     -0.366789  1 O  py         
    38      0.357829  2 H  py                11     -0.303937  1 O  px         
    12      0.243993  1 O  py                 8     -0.222134  1 O  px         
    47      0.219832  3 H  s          

 Vector   16  Occ=0.000000D+00  E= 8.857223D-01  Symmetry=a
              MO Center=  4.4D-01, -3.6D-01, -2.6D-12, r^2= 2.0D+00
   Bfn.  Coefficient  Atom+Function         Bfn.  Coefficient  Atom+Function  
  ----- ------------  ---------------      ----- ------------  ---------------
    53      1.226227  3 H  pz                13     -0.941909  1 O  pz         
    39      0.202321  2 H  pz         

 Vector   17  Occ=0.000000D+00  E= 9.683453D-01  Symmetry=a
              MO Center= -7.0D-02,  2.4D-01,  8.0D-12, r^2= 4.0D+00
   Bfn.  Coefficient  Atom+Function         Bfn.  Coefficient  Atom+Function  
  ----- ------------  ---------------      ----- ------------  ---------------
     4      1.845149  1 O  s                 12     -1.300254  1 O  py         
    46     -1.211596  3 H  s                 51      0.814220  3 H  px         
    38     -0.632874  2 H  py                47     -0.553948  3 H  s          
    52      0.527848  3 H  py                 2     -0.388147  1 O  s          
     8      0.383099  1 O  px                11      0.381955  1 O  px         

 Vector   18  Occ=0.000000D+00  E= 1.118624D+00  Symmetry=a
              MO Center=  6.7D-03,  2.2D-01,  5.7D-11, r^2= 2.3D+00
   Bfn.  Coefficient  Atom+Function         Bfn.  Coefficient  Atom+Function  
  ----- ------------  ---------------      ----- ------------  ---------------
     4      3.931234  1 O  s                 46     -2.247346  3 H  s          
    11      1.118632  1 O  px                 2     -1.107506  1 O  s          
    51      1.029958  3 H  px                47     -0.821343  3 H  s          
     8      0.660850  1 O  px                52     -0.577064  3 H  py         
     9     -0.380974  1 O  py                 1     -0.374269  1 O  s          


 Wrote Lagrangian and 1- and 2-particle density matrices to ./H2O.mcpdm


     Multipole analysis of the density
     ---------------------------------

     L   x y z        total        nuclear
     -   - - -        -----        -------
     0   0 0 0     -0.000000     10.000000

     1   1 0 0      0.597743     -0.000000
     1   0 1 0     -0.219629     -0.000000
     1   0 0 1      0.000000      0.000000

     2   2 0 0     -4.417444      2.679864
     2   1 1 0     -0.574909     -1.948872
     2   1 0 1     -0.000000      0.000000
     2   0 2 0     -4.549112     27.883599
     2   0 1 1     -0.000000      0.000000
     2   0 0 2     -5.916965      0.000000


  Mulliken analysis of the total density
  --------------------------------------

    Atom       Charge   Shell Charges
 -----------   ------   -------------------------------------------------------
    1 O    8     8.23   1.95  1.06  0.25  0.64  1.22  1.95  1.15  0.00  0.01  0.00
    2 H    1     1.00   0.17  0.49  0.34 -0.00  0.00  0.00
    3 H    1     0.77   0.25  0.40  0.03  0.02  0.06  0.01

    Mulliken analysis of the active space density
    ---------------------------------------------

    Atom       Charge   Shell Charges
 -----------   ------   -------------------------------------------------------
    1 O    8     8.23   1.95  1.06  0.25  0.64  1.22  1.95  1.15  0.00  0.01  0.00
    2 H    1     1.00   0.17  0.49  0.34 -0.00  0.00  0.00
    3 H    1     0.77   0.25  0.40  0.03  0.02  0.06  0.01

 Parallel integral file used      12 records with       0 large values


 Task  times  cpu:        3.4s     wall:        6.5s


                                NWChem Input Module
                                -------------------


                                 NWChem SCF Module
                                 -----------------


                                        H2O



  ao basis        = "ao basis"
  functions       =    58
  atoms           =     3
  closed shells   =     5
  open shells     =     0
  charge          =   0.00
  wavefunction    = RHF 
  input vectors   = ./h2o.mos
  output vectors  = ./h2o-trash.mos
  use symmetry    = F
  symmetry adapt  = F


 Summary of "ao basis" -> "ao basis" (spherical)
 ------------------------------------------------------------------------------
       Tag                 Description            Shells   Functions and Types
 ---------------- ------------------------------  ------  ---------------------
 O                          cc-pVTZ                 10       30   4s3p2d1f
 H                          cc-pVTZ                  6       14   3s2p1d



 Forming initial guess at       6.6s


 Loading old vectors from job with title :

H2O


 Starting SCF solution at       6.6s



 ----------------------------------------------
         Quadratically convergent ROHF

 Convergence threshold     :          1.000E-04
 Maximum no. of iterations :           30
 Final Fock-matrix accuracy:          1.000E-07
 ----------------------------------------------


 Integral file          = ./H2O.aoints.0
 Record size in doubles =  65536        No. of integs per rec  =  43688
 Max. records in memory =     49        Max. records in file   = 250681
 No. of bits per label  =      8        No. of bits per value  =     64


 #quartets = 2.827D+04 #integrals = 4.926D+05 #direct =  0.0% #cached =100.0%



       Final RHF  results 
       ------------------ 

         Total SCF energy =    -75.685299915910
      One-electron energy =   -116.372788679210
      Two-electron energy =     34.724068985514
 Nuclear repulsion energy =      5.963419777786

        Time for solution =      0.1s


             Final eigenvalues
             -----------------

              1      
    1  -20.6111
    2   -1.3075
    3   -0.6728
    4   -0.5500
    5   -0.3387
    6   -0.2333
    7   -0.0261
    8   -0.0128
    9    0.2739
   10    0.4150
   11    0.6406
   12    0.6923
   13    0.7886
   14    0.8001
   15    0.8388

                       ROHF Final Molecular Orbital Analysis
                       -------------------------------------

 Vector    2  Occ=2.000000D+00  E=-1.307540D+00
              MO Center= -2.6D-01, -1.9D-01,  6.2D-11, r^2= 4.2D-01
   Bfn.  Coefficient  Atom+Function         Bfn.  Coefficient  Atom+Function  
  ----- ------------  ---------------      ----- ------------  ---------------
     2      0.552381  1 O  s                  4      0.401306  1 O  s          
     3      0.154252  1 O  s          

 Vector    3  Occ=2.000000D+00  E=-6.728241D-01
              MO Center= -6.2D-02, -2.7D-01, -6.1D-11, r^2= 6.2D-01
   Bfn.  Coefficient  Atom+Function         Bfn.  Coefficient  Atom+Function  
  ----- ------------  ---------------      ----- ------------  ---------------
    10      0.448785  1 O  pz                13      0.378160  1 O  pz         
     7      0.369697  1 O  pz         

 Vector    4  Occ=2.000000D+00  E=-5.499731D-01
              MO Center=  3.3D-01, -4.1D-01, -1.9D-12, r^2= 5.8D-01
   Bfn.  Coefficient  Atom+Function         Bfn.  Coefficient  Atom+Function  
  ----- ------------  ---------------      ----- ------------  ---------------
     8      0.329062  1 O  px                46      0.284895  3 H  s          
     5      0.274593  1 O  px                45      0.188594  3 H  s          
    11      0.176474  1 O  px         

 Vector    5  Occ=2.000000D+00  E=-3.387358D-01
              MO Center= -7.6D-02,  1.2D+00, -2.7D-13, r^2= 2.8D+00
   Bfn.  Coefficient  Atom+Function         Bfn.  Coefficient  Atom+Function  
  ----- ------------  ---------------      ----- ------------  ---------------
    32      0.341596  2 H  s                  9      0.315943  1 O  py         
    33      0.272530  2 H  s                  6      0.246051  1 O  py         
    12      0.211685  1 O  py                31      0.163090  2 H  s          

 Vector    6  Occ=0.000000D+00  E=-2.333368D-01
              MO Center= -8.1D-02,  1.2D+00, -5.6D-13, r^2= 2.8D+00
   Bfn.  Coefficient  Atom+Function         Bfn.  Coefficient  Atom+Function  
  ----- ------------  ---------------      ----- ------------  ---------------
    32     -0.369981  2 H  s                  9      0.336733  1 O  py         
    33     -0.271736  2 H  s                  6      0.261181  1 O  py         
    12      0.214532  1 O  py                31     -0.173563  2 H  s          

 Vector    7  Occ=0.000000D+00  E=-2.609567D-02
              MO Center=  5.1D-01, -4.8D-01, -5.9D-13, r^2= 5.9D-01
   Bfn.  Coefficient  Atom+Function         Bfn.  Coefficient  Atom+Function  
  ----- ------------  ---------------      ----- ------------  ---------------
    46      0.706389  3 H  s                  5     -0.475925  1 O  px         
     8     -0.417717  1 O  px                45      0.351969  3 H  s          
     2     -0.290152  1 O  s                  4     -0.256079  1 O  s          
     6      0.177125  1 O  py                 9      0.155744  1 O  py         

 Vector    8  Occ=0.000000D+00  E=-1.275240D-02
              MO Center=  5.5D-02, -3.1D-01, -8.0D-11, r^2= 1.2D+00
   Bfn.  Coefficient  Atom+Function         Bfn.  Coefficient  Atom+Function  
  ----- ------------  ---------------      ----- ------------  ---------------
    13      0.796473  1 O  pz                 7     -0.646604  1 O  pz         
    10     -0.264744  1 O  pz                53      0.173450  3 H  pz         

 Vector    9  Occ=0.000000D+00  E= 2.738690D-01
              MO Center=  1.0D+00, -5.9D-01,  3.3D-11, r^2= 3.9D+00
   Bfn.  Coefficient  Atom+Function         Bfn.  Coefficient  Atom+Function  
  ----- ------------  ---------------      ----- ------------  ---------------
    47      1.896700  3 H  s                  4     -1.202379  1 O  s          
    11     -0.532395  1 O  px                51     -0.399891  3 H  px         
    46     -0.257496  3 H  s                 32     -0.210857  2 H  s          
    12      0.174205  1 O  py                52      0.158735  3 H  py         
    33      0.151418  2 H  s          

 Vector   10  Occ=0.000000D+00  E= 4.150462D-01
              MO Center= -5.3D-02,  2.6D+00, -2.6D-13, r^2= 3.7D+00
   Bfn.  Coefficient  Atom+Function         Bfn.  Coefficient  Atom+Function  
  ----- ------------  ---------------      ----- ------------  ---------------
    33      1.612016  2 H  s                 32     -1.351101  2 H  s          
    47     -0.520652  3 H  s                 46      0.223371  3 H  s          
     4      0.165911  1 O  s          

 Vector   11  Occ=0.000000D+00  E= 6.406363D-01
              MO Center= -6.1D-01,  3.3D-01, -4.1D-12, r^2= 2.6D+00
   Bfn.  Coefficient  Atom+Function         Bfn.  Coefficient  Atom+Function  
  ----- ------------  ---------------      ----- ------------  ---------------
    46      2.837863  3 H  s                  4     -2.216285  1 O  s          
    11     -2.196728  1 O  px                12      0.959937  1 O  py         
    51     -0.861164  3 H  px                52      0.274294  3 H  py         
    47      0.262812  3 H  s                 38     -0.253086  2 H  py         
    37     -0.203232  2 H  px                33     -0.199752  2 H  s          

 Vector   12  Occ=0.000000D+00  E= 6.923115D-01
              MO Center= -1.6D-01,  1.2D+00, -4.3D-13, r^2= 3.4D+00
   Bfn.  Coefficient  Atom+Function         Bfn.  Coefficient  Atom+Function  
  ----- ------------  ---------------      ----- ------------  ---------------
    11      1.018672  1 O  px                 4      1.009004  1 O  s          
    46     -0.948985  3 H  s                 38     -0.659742  2 H  py         
    12      0.572374  1 O  py                 9     -0.507879  1 O  py         
    51      0.307619  3 H  px                52     -0.295885  3 H  py         
    47     -0.257419  3 H  s          

 Vector   13  Occ=0.000000D+00  E= 7.886153D-01
              MO Center= -6.9D-02,  2.5D+00,  8.2D-13, r^2= 1.3D+00
   Bfn.  Coefficient  Atom+Function         Bfn.  Coefficient  Atom+Function  
  ----- ------------  ---------------      ----- ------------  ---------------
    39      1.040348  2 H  pz                53     -0.232304  3 H  pz         
    13      0.155090  1 O  pz         

 Vector   14  Occ=0.000000D+00  E= 8.001291D-01
              MO Center= -1.3D-01,  2.5D+00, -1.0D-12, r^2= 1.5D+00
   Bfn.  Coefficient  Atom+Function         Bfn.  Coefficient  Atom+Function  
  ----- ------------  ---------------      ----- ------------  ---------------
    37      1.029397  2 H  px                46      0.633171  3 H  s          
    11     -0.574020  1 O  px                 4     -0.472402  1 O  s          
    51     -0.154580  3 H  px         

 Vector   15  Occ=0.000000D+00  E= 8.388476D-01
              MO Center=  6.8D-01, -2.6D-01,  8.3D-13, r^2= 2.1D+00
   Bfn.  Coefficient  Atom+Function         Bfn.  Coefficient  Atom+Function  
  ----- ------------  ---------------      ----- ------------  ---------------
    52      1.003083  3 H  py                 4     -0.646910  1 O  s          
    46      0.478323  3 H  s                  9     -0.366789  1 O  py         
    38      0.357829  2 H  py                11     -0.303937  1 O  px         
    12      0.243993  1 O  py                 8     -0.222134  1 O  px         
    47      0.219832  3 H  s          


 center of mass
 --------------
 x =  -0.07599894 y =  -0.21175711 z =   0.00000000

 moments of inertia (a.u.)
 ------------------
          29.127885305322           1.595858925122           0.000000000000
           1.595858925122           2.833002082974           0.000000000000
           0.000000000000           0.000000000000          31.960887388296

  Mulliken analysis of the total density
  --------------------------------------

    Atom       Charge   Shell Charges
 -----------   ------   -------------------------------------------------------
    1 O    8     8.24   1.95  1.06  0.25  0.64  1.20  1.95  1.17  0.00  0.01  0.00
    2 H    1     0.99   0.17  0.47  0.36 -0.00  0.00  0.00
    3 H    1     0.77   0.25  0.40  0.03  0.02  0.06  0.01

       Multipole analysis of the density wrt the origin
       ------------------------------------------------

     L   x y z        total         open         nuclear
     -   - - -        -----         ----         -------
     0   0 0 0     -0.000000      0.000000     10.000000

     1   1 0 0      0.602880      0.000000     -0.000000
     1   0 1 0     -0.151472      0.000000     -0.000000
     1   0 0 1      0.000000      0.000000      0.000000

     2   2 0 0     -4.448929      0.000000      2.679864
     2   1 1 0     -0.640394      0.000000     -1.948872
     2   1 0 1     -0.000000      0.000000      0.000000
     2   0 2 0     -3.881409      0.000000     27.883599
     2   0 1 1     -0.000000      0.000000      0.000000
     2   0 0 2     -5.950890      0.000000      0.000000


 Parallel integral file used      12 records with       0 large values

 ------------------------------------
     Number of active orbitals      8
     Number of active alpha electrons      5
     Number of active beta electrons       5
 ------------------------------------
                   NWChem Extensible Many-Electron Theory Module
                   ---------------------------------------------

              ======================================================
                   This portion of the program was automatically
                  generated by a Tensor Contraction Engine (TCE).
                  The development of this portion of the program
                 and TCE was supported by US Department of Energy,
                Office of Science, Office of Basic Energy Science.
                      TCE is a product of Battelle and PNNL.
              Please cite: S.Hirata, J.Phys.Chem.A 107, 9887 (2003).
              ======================================================

                                        H2O


            General Information
            -------------------
      Number of processors :     1
         Wavefunction type : Restricted Hartree-Fock
          No. of electrons :    10
           Alpha electrons :     5
            Beta electrons :     5
           No. of orbitals :   116
            Alpha orbitals :    58
             Beta orbitals :    58
        Alpha frozen cores :     0
         Beta frozen cores :     0
     Alpha frozen virtuals :    50
      Beta frozen virtuals :    50
         Spin multiplicity : singlet 
    Number of AO functions :    58
       Number of AO shells :    22
        Use of symmetry is : off
      Symmetry adaption is : off
         Schwarz screening : 0.10D-09

          Correlation Information
          -----------------------
          Calculation type : Coupled-cluster singles & doubles                           
   Perturbative correction : none                                                        
            Max iterations :      300
        Residual threshold : 0.10D-06
     T(0) DIIS level shift : 0.00D+00
     L(0) DIIS level shift : 0.00D+00
     T(1) DIIS level shift : 0.00D+00
     L(1) DIIS level shift : 0.00D+00
     T(R) DIIS level shift : 0.00D+00
     T(I) DIIS level shift : 0.00D+00
   CC-T/L Amplitude update :  5-th order DIIS
                I/O scheme : Global Array Library
        L-threshold :  0.10D-06
        EOM-threshold :  0.10D-06
 no EOMCCSD initial starts read in
 TCE RESTART OPTIONS
 READ_INT:   F
 WRITE_INT:  F
 READ_TA:    F
 WRITE_TA:   F
 READ_XA:    F
 WRITE_XA:   F
 READ_IN3:   F
 WRITE_IN3:  F
 SLICE:      F
 D4D5:       F
 quantumc:   T
 qrotation:  F
 pwtce:      F
 qducc:      F
 nacto:                         0
 nrotv:                         0
 nrot:                          0

            Memory Information
            ------------------
          Available GA space size is    1610609372 doubles
          Available MA space size is    1610609772 doubles

 Maximum block size supplied by input
 Maximum block size         1 doubles

 tile_dim =      1

 Block   Spin    Irrep     Size     Offset   Alpha
 -------------------------------------------------
   1    alpha     a      1 doubles       0       1
   2    alpha     a      1 doubles       1       2
   3    alpha     a      1 doubles       2       3
   4    alpha     a      1 doubles       3       4
   5    alpha     a      1 doubles       4       5
   6    beta      a      1 doubles       5       1
   7    beta      a      1 doubles       6       2
   8    beta      a      1 doubles       7       3
   9    beta      a      1 doubles       8       4
  10    beta      a      1 doubles       9       5
  11    alpha     a      1 doubles      10      11
  12    alpha     a      1 doubles      11      12
  13    alpha     a      1 doubles      12      13
  14    beta      a      1 doubles      13      11
  15    beta      a      1 doubles      14      12
  16    beta      a      1 doubles      15      13

 Global array virtual files algorithm will be used

 Parallel file system coherency ......... OK

 Integral file          = ./H2O.aoints.0
 Record size in doubles =  65536        No. of integs per rec  =  43688
 Max. records in memory =     49        Max. records in file   = 250681
 No. of bits per label  =      8        No. of bits per value  =     64


 #quartets = 3.052D+04 #integrals = 5.591D+05 #direct =  0.0% #cached =100.0%


 Fock matrix recomputed
 1-e file size   =               64
 1-e file name   = ./H2O.f1
 Cpu & wall time / sec            0.1            0.1
 4-electron integrals stored in orbital form

 v2    file size   =              666
 4-index algorithm nr.  13 is used
 imaxsize =       30
 imaxsize ichop =        0
 begin_one_electron_integrals
    1    1       -32.6127964378
    2    1        -1.1240682399
    4    1         0.1416208966
    5    1        -0.0147039411
    6    1         0.0154851253
    7    1        -0.2125771418
    1    2        -1.1240682399
    2    2        -7.6157351928
    4    2        -0.2628791668
    5    2         0.0450099184
    6    2        -0.0746051334
    7    2         0.1274796221
    3    3        -6.8157440405
    8    3         2.1114249413
    1    4         0.1416208966
    2    4        -0.2628791668
    4    4        -6.5931922165
    5    4        -0.0263576164
    6    4         0.0200448970
    7    4         1.9045034552
    1    5        -0.0147039411
    2    5         0.0450099184
    4    5        -0.0263576164
    5    5        -4.5489264519
    6    5        -2.4431108591
    7    5         0.0094476310
    1    6         0.0154851253
    2    6        -0.0746051334
    4    6         0.0200448970
    5    6        -2.4431108591
    6    6        -4.5830148396
    7    6        -0.0075828200
    1    7        -0.2125771418
    2    7         0.1274796221
    4    7         1.9045034552
    5    7         0.0094476310
    6    7        -0.0075828200
    7    7        -5.8643667521
    3    8         2.1114249413
    8    8        -5.2021732980
 end_one_electron_integrals
 begin_two_electron_integrals
    1    1    1    1        4.8322560735
    2    1    1    1       -0.2085052154
    2    1    2    1        0.0276439753
    3    1    3    1        0.0280810560
    4    1    1    1       -0.0901379273
    4    1    2    1        0.0021346282
    4    1    4    1        0.0210481518
    4    1    2    2       -0.0136624202
    4    1    3    3       -0.0026080710
    5    1    1    1        0.0085089495
    5    1    2    1       -0.0007617605
    5    1    4    1        0.0000246359
    5    1    5    1        0.0144819139
    5    1    2    2        0.0005250983
    5    1    4    2        0.0002078476
    5    1    3    3        0.0007031087
    5    1    4    4        0.0007038059
    6    1    1    1       -0.0095371694
    6    1    2    1        0.0007890923
    6    1    4    1        0.0000442998
    6    1    5    1        0.0151095179
    6    1    6    1        0.0158744894
    6    1    2    2       -0.0006761732
    6    1    4    2       -0.0001895818
    6    1    5    2        0.0135286577
    6    1    3    3       -0.0007307385
    6    1    4    4       -0.0007247099
    6    1    5    4        0.0026999644
    6    1    5    5       -0.0003627866
    7    1    1    1        0.1725233562
    7    1    2    1       -0.0070004201
    7    1    4    1       -0.0326464141
    7    1    5    1        0.0000959400
    7    1    6    1       -0.0001534245
    7    1    7    1        0.0513515861
    7    1    2    2        0.0220852321
    7    1    4    2       -0.0256557843
    7    1    5    2       -0.0005274447
    7    1    6    2        0.0005538054
    7    1    3    3        0.0039418997
    7    1    4    4       -0.0142528069
    7    1    5    4        0.0002616052
    7    1    6    4       -0.0002962053
    7    1    5    5        0.0024248997
    7    1    6    5        0.0018242128
    7    1    6    6        0.0025068316
    8    1    3    1       -0.0395260990
    8    1    8    1        0.0561727835
    8    1    3    2       -0.0387702660
    8    1    4    3       -0.0075495801
    8    1    5    3        0.0004930633
    8    1    6    3       -0.0005890063
    8    1    7    3        0.0104818870
    2    2    1    1        1.0797161275
    2    2    2    1        0.0105755059
    2    2    2    2        0.8289572365
    3    2    3    1        0.0247994069
    3    2    3    2        0.1450675352
    4    2    1    1       -0.0064268647
    4    2    2    1       -0.0036245901
    4    2    4    1        0.0159260369
    4    2    2    2       -0.0576215343
    4    2    4    2        0.0910396050
    4    2    3    3        0.0105984144
    5    2    1    1       -0.0130952809
    5    2    2    1       -0.0001953099
    5    2    4    1        0.0003532749
    5    2    5    1        0.0127592343
    5    2    2    2       -0.0086393784
    5    2    4    2        0.0012168170
    5    2    5    2        0.0747694436
    5    2    3    3       -0.0069580300
    5    2    4    4       -0.0052700910
    6    2    1    1        0.0130544164
    6    2    2    1        0.0001527764
    6    2    4    1       -0.0003337006
    6    2    5    1        0.0132129207
    6    2    6    1        0.0139529767
    6    2    2    2        0.0081138169
    6    2    4    2       -0.0013105215
    6    2    5    2        0.0750138184
    6    2    6    2        0.0759858713
    6    2    3    3        0.0070436851
    6    2    4    4        0.0050806192
    6    2    5    4        0.0114499461
    6    2    5    5        0.0086030285
    7    2    1    1       -0.0261208947
    7    2    2    1        0.0042301297
    7    2    4    1       -0.0158252622
    7    2    5    1       -0.0002103331
    7    2    6    1        0.0002550111
    7    2    7    1        0.0237572192
    7    2    2    2        0.0289654253
    7    2    4    2       -0.0614513313
    7    2    5    2       -0.0006251926
    7    2    6    2        0.0010344710
    7    2    7    2        0.0538900788
    7    2    3    3       -0.0198982073
    7    2    4    4       -0.0362787038
    7    2    5    4        0.0006101650
    7    2    6    4       -0.0007266421
    7    2    5    5       -0.0105788486
    7    2    6    5       -0.0124555820
    7    2    6    6       -0.0114962869
    8    2    3    1       -0.0206548300
    8    2    8    1        0.0276740214
    8    2    3    2       -0.0547378109
    8    2    8    2        0.0456338464
    8    2    4    3       -0.0027068283
    8    2    5    3        0.0009237108
    8    2    6    3       -0.0011521771
    8    2    7    3        0.0115317429
    3    3    1    1        1.0502386855
    3    3    2    1        0.0084443620
    3    3    2    2        0.7427013757
    3    3    3    3        0.7620171671
    4    3    3    1        0.0050425462
    4    3    3    2        0.0232836324
    4    3    4    3        0.0366449724
    5    3    3    1       -0.0003438487
    5    3    3    2       -0.0016825720
    5    3    4    3       -0.0000286037
    5    3    5    3        0.0189385348
    6    3    3    1        0.0004043288
    6    3    3    2        0.0019347456
    6    3    4    3        0.0001096810
    6    3    5    3        0.0190893191
    6    3    6    3        0.0194251620
    7    3    3    1       -0.0077655656
    7    3    3    2       -0.0226664603
    7    3    4    3       -0.0207582488
    7    3    5    3        0.0002294449
    7    3    6    3       -0.0002502486
    7    3    7    3        0.0253757464
    8    3    1    1       -0.5375204693
    8    3    2    1       -0.0057341497
    8    3    4    1        0.0044038445
    8    3    5    1       -0.0005128148
    8    3    6    1        0.0004972267
    8    3    7    1       -0.0078345091
    8    3    2    2       -0.2195817968
    8    3    4    2        0.0114631008
    8    3    5    2        0.0033193502
    8    3    6    2       -0.0036683214
    8    3    7    2        0.0057180924
    8    3    3    3       -0.2120397493
    8    3    8    3        0.1664099800
    8    3    4    4       -0.1383216363
    8    3    5    4       -0.0011008983
    8    3    6    4        0.0008382850
    8    3    7    4        0.1250949709
    8    3    5    5       -0.0998218440
    8    3    6    5       -0.0979798089
    8    3    7    5        0.0007956037
    8    3    6    6       -0.1054518548
    8    3    7    6       -0.0007987465
    8    3    7    7       -0.1634247270
    4    4    1    1        0.9084148417
    4    4    2    1        0.0050338494
    4    4    4    1        0.0079039541
    4    4    2    2        0.6365709283
    4    4    4    2        0.0803603288
    4    4    3    3        0.6386224951
    4    4    4    4        0.7752182730
    5    4    1    1        0.0049485558
    5    4    2    1        0.0001072922
    5    4    4    1       -0.0001798475
    5    4    5    1        0.0025748653
    5    4    2    2        0.0034717003
    5    4    4    2       -0.0005600176
    5    4    5    2        0.0110393975
    5    4    3    3        0.0027765742
    5    4    4    4        0.0029935067
    5    4    5    4        0.0181463093
    6    4    1    1       -0.0042026468
    6    4    2    1       -0.0001157552
    6    4    4    1        0.0002133524
    6    4    5    1        0.0026768631
    6    4    6    1        0.0028220951
    6    4    2    2       -0.0033256754
    6    4    4    2        0.0005528295
    6    4    5    2        0.0119862843
    6    4    6    2        0.0120896152
    6    4    3    3       -0.0024754918
    6    4    4    4       -0.0029375144
    6    4    5    4        0.0183713548
    6    4    6    4        0.0188317427
    6    4    5    5        0.0011049398
    7    4    1    1       -0.4712969445
    7    4    2    1       -0.0030136533
    7    4    4    1       -0.0038153314
    7    4    5    1       -0.0005107505
    7    4    6    1        0.0005047721
    7    4    7    1        0.0021654931
    7    4    2    2       -0.2122821022
    7    4    4    2        0.0155987483
    7    4    5    2        0.0029101056
    7    4    6    2       -0.0032441438
    7    4    7    2        0.0160022179
    7    4    3    3       -0.1826739487
    7    4    4    4       -0.0932446821
    7    4    5    4       -0.0005787699
    7    4    6    4        0.0000832464
    7    4    7    4        0.2137137262
    7    4    5    5       -0.1005414016
    7    4    6    5       -0.0918001254
    7    4    6    6       -0.1053038169
    8    4    3    1       -0.0021911721
    8    4    8    1        0.0018300981
    8    4    3    2        0.0080364743
    8    4    8    2        0.0028107763
    8    4    4    3        0.0001090849
    8    4    5    3       -0.0000637116
    8    4    6    3        0.0000169907
    8    4    7    3        0.0150608119
    8    4    8    4        0.0199716301
    5    5    1    1        0.6293552603
    5    5    2    1        0.0043147046
    5    5    4    1       -0.0014790744
    5    5    5    1        0.0001314482
    5    5    2    2        0.4727313811
    5    5    4    2        0.0017170088
    5    5    5    2        0.0046609434
    5    5    3    3        0.4406346261
    5    5    4    4        0.4097344730
    5    5    5    4        0.0014151487
    5    5    5    5        0.4424624518
    6    5    1    1        0.4552054419
    6    5    2    1        0.0045434558
    6    5    4    1       -0.0013186829
    6    5    5    1        0.0003253288
    6    5    6    1       -0.0006426674
    6    5    2    2        0.2882567637
    6    5    4    2        0.0078617586
    6    5    5    2       -0.0118584913
    6    5    6    2       -0.0023699394
    6    5    3    3        0.2632105877
    6    5    4    4        0.2407064777
    6    5    5    4        0.0016121432
    6    5    6    4       -0.0034228750
    6    5    5    5        0.0471207244
    6    5    6    5        0.2648028286
    7    5    1    1       -0.0023544156
    7    5    2    1       -0.0000903771
    7    5    4    1        0.0001992408
    7    5    5    1       -0.0044058176
    7    5    6    1       -0.0046296600
    7    5    7    1       -0.0003353512
    7    5    2    2       -0.0016823938
    7    5    4    2        0.0012425497
    7    5    5    2       -0.0149607808
    7    5    6    2       -0.0153471935
    7    5    7    2       -0.0008083662
    7    5    3    3       -0.0006683104
    7    5    4    4        0.0004477609
    7    5    5    4       -0.0116966314
    7    5    6    4       -0.0121657423
    7    5    7    4        0.0014712559
    7    5    5    5       -0.0011497360
    7    5    6    5        0.0004801099
    7    5    7    5        0.0142379048
    7    5    6    6       -0.0014296231
    8    5    3    1        0.0003016644
    8    5    8    1       -0.0004699523
    8    5    3    2        0.0016834096
    8    5    8    2       -0.0005457195
    8    5    4    3        0.0001618556
    8    5    5    3       -0.0060349369
    8    5    6    3       -0.0064878439
    8    5    7    3       -0.0000821126
    8    5    8    4        0.0002536330
    8    5    8    5        0.0087249324
    6    6    1    1        0.6483482684
    6    6    2    1        0.0046132202
    6    6    4    1       -0.0015457025
    6    6    5    1        0.0007904530
    6    6    6    1        0.0002758320
    6    6    2    2        0.4780467774
    6    6    4    2        0.0026019260
    6    6    5    2        0.0060548200
    6    6    6    2        0.0104254513
    6    6    3    3        0.4456120915
    6    6    4    4        0.4139785163
    6    6    5    4        0.0012219963
    6    6    6    4        0.0008812291
    6    6    5    5        0.4510289622
    6    6    6    5        0.0440207222
    6    6    6    6        0.4612907382
    7    6    1    1        0.0024235327
    7    6    2    1        0.0001251333
    7    6    4    1       -0.0002744832
    7    6    5    1       -0.0045984111
    7    6    6    1       -0.0048232017
    7    6    7    1        0.0004453253
    7    6    2    2        0.0022227684
    7    6    4    2       -0.0015949375
    7    6    5    2       -0.0155435211
    7    6    6    2       -0.0158442770
    7    6    7    2        0.0009622539
    7    6    3    3        0.0007587722
    7    6    4    4       -0.0008706975
    7    6    5    4       -0.0122939182
    7    6    6    4       -0.0127827463
    7    6    7    4       -0.0016681645
    7    6    5    5        0.0002257194
    7    6    6    5        0.0007444067
    7    6    7    5        0.0146603121
    7    6    6    6       -0.0000757080
    7    6    7    6        0.0152582504
    8    6    3    1       -0.0003945987
    8    6    8    1        0.0006176098
    8    6    3    2       -0.0020790705
    8    6    8    2        0.0007484299
    8    6    4    3       -0.0002722900
    8    6    5    3       -0.0068004322
    8    6    6    3       -0.0072487169
    8    6    7    3        0.0001624256
    8    6    8    4       -0.0002580342
    8    6    8    5        0.0086015744
    8    6    8    6        0.0088107259
    7    7    1    1        1.0486229610
    7    7    2    1        0.0036645332
    7    7    4    1        0.0076839489
    7    7    5    1        0.0009326503
    7    7    6    1       -0.0009409464
    7    7    7    1       -0.0126926830
    7    7    2    2        0.6313031061
    7    7    4    2        0.0705030638
    7    7    5    2       -0.0054887759
    7    7    6    2        0.0053979167
    7    7    7    2       -0.0351414374
    7    7    3    3        0.6362779028
    7    7    4    4        0.7588655102
    7    7    5    4        0.0031981198
    7    7    6    4       -0.0031780280
    7    7    7    4       -0.0883328285
    7    7    5    5        0.4068814966
    7    7    6    5        0.2431429583
    7    7    7    5        0.0005441942
    7    7    6    6        0.4122486825
    7    7    7    6       -0.0010399875
    7    7    7    7        0.7999589688
    8    7    3    1        0.0070368895
    8    7    8    1       -0.0100862275
    8    7    3    2        0.0241591401
    8    7    8    2       -0.0060330658
    8    7    4    3        0.0275164127
    8    7    5    3       -0.0000692502
    8    7    6    3        0.0001508567
    8    7    7    3       -0.0165931105
    8    7    8    4       -0.0005579261
    8    7    8    5        0.0002737963
    8    7    8    6       -0.0003785654
    8    7    8    7        0.0299876483
    8    8    1    1        1.0485011599
    8    8    2    1        0.0052750238
    8    8    4    1       -0.0052242475
    8    8    5    1        0.0008067143
    8    8    6    1       -0.0007819767
    8    8    7    1        0.0079649388
    8    8    2    2        0.6387151357
    8    8    4    2        0.0115109158
    8    8    5    2       -0.0055963509
    8    8    6    2        0.0057760846
    8    8    7    2       -0.0136709207
    8    8    3    3        0.6592018115
    8    8    8    3       -0.1836266758
    8    8    4    4        0.5782331723
    8    8    5    4        0.0025033168
    8    8    6    4       -0.0022697164
    8    8    7    4       -0.1434208423
    8    8    5    5        0.3964254972
    8    8    6    5        0.2236870063
    8    8    7    5       -0.0004947347
    8    8    6    6        0.4004614746
    8    8    7    6        0.0004560589
    8    8    7    7        0.5940693240
    8    8    8    8        0.6153337263
 end_two_electron_integrals
 enrep_tce =    5.9634197777858908     
  EHF(A)             =       -75.68529992
  EHF(total)         =       -75.68529992
  Shift (HFtot-HFA)  =         0.00000000
 Cpu & wall time / sec            0.9            0.9
 T1-number-of-tasks                   15

 t1 file size   =               15
 t1 file name   = ./H2O.t1
 t1 file handle =       -998
 T2-number-of-boxes                  315

 t2 file size   =              315
 t2 file name   = ./H2O.t2
 t2 file handle =       -996
CCSD iterations
 ---------------------------------------------------------
 Iter          Residuum       Correlation     Cpu    Wall 
 ---------------------------------------------------------
NEW TASK SCHEDULING
CCSD_T1_NTS --- OK
CCSD_T2_NTS --- OK
    1   1.0445751031508  -0.5471264355440     1.9     2.6
    2   1.4865587463039   1.1250948126461     1.9     2.6
    3 399.6513575016464   8.0511305145858     1.7     2.7
    4************************************     1.9     2.7
    5************************************     1.8     2.6
 MICROCYCLE DIIS UPDATE:                    5                    5
    6   0.2168322614332  -0.1484747725921     1.8     2.6
    7   0.7330566373161  -0.2205492624381     1.7     2.7
    8   7.3202461579206   3.2172186647906     1.8     2.7
    9****************** 825.7072408649077     1.9     2.7
   10************************************     2.1     2.6
 MICROCYCLE DIIS UPDATE:                   10                    5
   11   0.1006393728061  -0.2382208291731     1.7     2.7
   12   0.2135211872368  -0.3500024218407     1.8     2.7
   13   0.4645712972887  -0.0687422134517     1.8     2.6
   14   1.3179424377329  -0.4557916450687     1.8     2.6
   15  15.6048939775267   4.2578905615774     1.8     2.7
 MICROCYCLE DIIS UPDATE:                   15                    5
   16   0.0423234499846  -0.2623330620354     1.9     2.7
   17   0.1055746969255  -0.3182807690002     1.9     2.7
   18   0.2472423976224  -0.1396976833034     1.8     2.7
   19   0.7460911866894  -0.1281084962172     1.9     2.6
   20   2.5559604642182   2.5410998740029     1.7     2.6
 MICROCYCLE DIIS UPDATE:                   20                    5
   21   0.0229437778646  -0.2718169014967     2.1     2.7
   22   0.0501794582547  -0.2999259748100     1.9     2.6
   23   0.1300214937654  -0.2337268541389     1.8     2.7
   24   0.4130098624319  -0.3827991291436     1.8     2.7
   25   0.5772104364688   0.7139212983939     1.9     2.7
 MICROCYCLE DIIS UPDATE:                   25                    5
   26   0.0075418032835  -0.2795093711928     1.8     2.7
   27   0.0136270169359  -0.2866542958317     1.8     2.7
   28   0.0367708051457  -0.2688864199145     1.7     2.7
   29   0.1119191123036  -0.3159557950642     1.7     2.6
   30   0.2554916236188  -0.0976296269296     1.8     2.6
 MICROCYCLE DIIS UPDATE:                   30                    5
   31   0.0039115051326  -0.2835677316312     1.7     2.7
   32   0.0088107857328  -0.2783395594491     1.8     2.7
   33   0.0290513141236  -0.2914341031471     1.8     2.6
   34   0.0880214646951  -0.2337309080162     1.8     2.6
   35   0.4307290975346  -0.2022686637207     1.9     2.7
 MICROCYCLE DIIS UPDATE:                   35                    5
   36   0.0006446610617  -0.2817020850102     1.9     2.7
   37   0.0012460469912  -0.2822626698872     1.8     2.7
   38   0.0042002358304  -0.2804271565750     2.0     2.7
   39   0.0169819870209  -0.2868067688439     1.9     2.6
   40   0.0612365955115  -0.2492084497754     1.7     2.6
 MICROCYCLE DIIS UPDATE:                   40                    5
   41   0.0001263939633  -0.2818539992312     1.7     2.6
   42   0.0002054038294  -0.2819188923501     1.8     2.6
   43   0.0005963349443  -0.2816632560007     1.7     2.6
   44   0.0019746332526  -0.2825521745620     1.7     2.6
   45   0.0069202760085  -0.2793350009019     1.7     2.6
 MICROCYCLE DIIS UPDATE:                   45                    5
   46   0.0000303939031  -0.2818613776685     1.8     2.6
   47   0.0000283835861  -0.2818693864104     2.0     2.7
   48   0.0000753154924  -0.2818397787361     1.8     2.6
   49   0.0002737639745  -0.2819544463580     1.8     2.7
   50   0.0010707631627  -0.2814991380548     1.7     2.7
 MICROCYCLE DIIS UPDATE:                   50                    5
   51   0.0000065861014  -0.2818639122674     1.8     2.7
   52   0.0000090523213  -0.2818617419400     2.0     2.7
   53   0.0000201913863  -0.2818652413598     1.9     2.6
   54   0.0000568874570  -0.2818652768855     1.9     2.6
   55   0.0002109988830  -0.2818274068482     1.9     2.7
 MICROCYCLE DIIS UPDATE:                   55                    5
   56   0.0000015960232  -0.2818631225487     2.0     2.7
   57   0.0000013341311  -0.2818634311115     1.7     2.7
   58   0.0000027274812  -0.2818624197315     2.0     2.7
   59   0.0000075904004  -0.2818656708174     1.9     2.7
   60   0.0000235964209  -0.2818550297798     1.9     2.7
 MICROCYCLE DIIS UPDATE:                   60                    5
   61   0.0000004022598  -0.2818632171246     1.9     2.7
   62   0.0000004546549  -0.2818631709675     1.7     2.7
   63   0.0000011243122  -0.2818630979924     1.7     2.7
   64   0.0000041229236  -0.2818640077323     2.0     2.7
   65   0.0000170994669  -0.2818587417262     1.9     2.7
 MICROCYCLE DIIS UPDATE:                   65                    5
   66   0.0000001053764  -0.2818631857502     2.0     2.7
   67   0.0000001033031  -0.2818632077855     2.0     2.7
   68   0.0000002504115  -0.2818631368279     1.7     2.6
   69   0.0000007389864  -0.2818633613675     1.9     2.6
   70   0.0000022820036  -0.2818626375276     2.0     2.7
 MICROCYCLE DIIS UPDATE:                   70                    5
   71   0.0000000273978  -0.2818631907014     1.9     2.7
 -----------------------------------------------------------------
 Iterations converged
 CCSD correlation energy / hartree =        -0.281863190701392
 CCSD total energy / hartree       =       -75.967163106611181

 Singles contributions

 Doubles contributions
     6a   (alpha)     6a   (beta ) ---     5a   (alpha)     5a   (beta )       -0.8488146234
     6a   (alpha)     7a   (beta ) ---     4a   (alpha)     5a   (beta )        0.0244482590
     7a   (alpha)     8a   (alpha) ---     3a   (alpha)     4a   (alpha)        0.0335866367
     7a   (alpha)     6a   (beta ) ---     5a   (alpha)     4a   (beta )        0.0244482590
     7a   (alpha)     7a   (beta ) ---     4a   (alpha)     4a   (beta )       -0.0939128058
     7a   (alpha)     8a   (beta ) ---     4a   (alpha)     3a   (beta )       -0.0429065193
     8a   (alpha)     7a   (beta ) ---     3a   (alpha)     4a   (beta )       -0.0429065193
     8a   (alpha)     8a   (beta ) ---     3a   (alpha)     3a   (beta )       -0.0596359250
 Ground state specification:
 exp(T)|Ref>~(1+T)|Ref>
 ------- a(p)+/a(q) strings ----------

 singles norm

 doubles norm

 Reference string
  0.76238509149692713      :(1a)+ (2a)+ (3a)+ (4a)+ (5a)+ (1b)+ (2b)+ (3b)+ (4b)+ (5b)+ |0>

 Singles strings

 Doubles strings
 -0.64712361436067378      :(6a)+ (6b)+ (5b)  (5a)  (1a)+ (2a)+ (3a)+ (4a)+ (5a)+ (1b)+ (2b)+ (3b)+ (4b)+ (5b)+ |0>
 -------------------------------------

 Parallel integral file used      13 records with       0 large values


 Task  times  cpu:      132.4s     wall:      191.5s


                                NWChem Input Module
                                -------------------


 Summary of allocated global arrays
-----------------------------------
  No active global arrays


MA_summarize_allocated_blocks: starting scan ...
MA_summarize_allocated_blocks: scan completed: 0 heap blocks, 0 stack blocks
MA usage statistics:

	allocation statistics:
					      heap	     stack
					      ----	     -----
	current number of blocks	         0	         0
	maximum number of blocks	        18	        42
	current total bytes		         0	         0
	maximum total bytes		  25775960	  38234456
	maximum total K-bytes		     25776	     38235
	maximum total M-bytes		        26	        39


                                     CITATION
                                     --------
                Please cite the following reference when publishing
                           results obtained with NWChem:

          E. Apra, E. J. Bylaska, W. A. de Jong, N. Govind, K. Kowalski,
       T. P. Straatsma, M. Valiev, H. J. J. van Dam, Y. Alexeev, J. Anchell,
       V. Anisimov, F. W. Aquino, R. Atta-Fynn, J. Autschbach, N. P. Bauman,
     J. C. Becca, D. E. Bernholdt, K. Bhaskaran-Nair, S. Bogatko, P. Borowski,
         J. Boschen, J. Brabec, A. Bruner, E. Cauet, Y. Chen, G. N. Chuev,
      C. J. Cramer, J. Daily, M. J. O. Deegan, T. H. Dunning Jr., M. Dupuis,
   K. G. Dyall, G. I. Fann, S. A. Fischer, A. Fonari, H. Fruchtl, L. Gagliardi,
      J. Garza, N. Gawande, S. Ghosh, K. Glaesemann, A. W. Gotz, J. Hammond,
       V. Helms, E. D. Hermes, K. Hirao, S. Hirata, M. Jacquelin, L. Jensen,
   B. G. Johnson, H. Jonsson, R. A. Kendall, M. Klemm, R. Kobayashi, V. Konkov,
      S. Krishnamoorthy, M. Krishnan, Z. Lin, R. D. Lins, R. J. Littlefield,
      A. J. Logsdail, K. Lopata, W. Ma, A. V. Marenich, J. Martin del Campo,
   D. Mejia-Rodriguez, J. E. Moore, J. M. Mullin, T. Nakajima, D. R. Nascimento,
    J. A. Nichols, P. J. Nichols, J. Nieplocha, A. Otero-de-la-Roza, B. Palmer,
    A. Panyala, T. Pirojsirikul, B. Peng, R. Peverati, J. Pittner, L. Pollack,
   R. M. Richard, P. Sadayappan, G. C. Schatz, W. A. Shelton, D. W. Silverstein,
   D. M. A. Smith, T. A. Soares, D. Song, M. Swart, H. L. Taylor, G. S. Thomas,
            V. Tipparaju, D. G. Truhlar, K. Tsemekhman, T. Van Voorhis,
      A. Vazquez-Mayagoitia, P. Verma, O. Villa, A. Vishnu, K. D. Vogiatzis,
        D. Wang, J. H. Weare, M. J. Williamson, T. L. Windus, K. Wolinski,
        A. T. Wong, Q. Wu, C. Yang, Q. Yu, M. Zacharias, Z. Zhang, Y. Zhao,
                                and R. J. Harrison
                        "NWChem: Past, present, and future
                         J. Chem. Phys. 152, 184102 (2020)
                               doi:10.1063/5.0004997

                                      AUTHORS
                                      -------
  E. Apra, E. J. Bylaska, N. Govind, K. Kowalski, M. Valiev, D. Mejia-Rodriguez,
       A. Kunitsa, N. P. Bauman, A. Panyala, W. A. de Jong, T. P. Straatsma,
        H. J. J. van Dam, D. Wang, T. L. Windus, J. Hammond, J. Autschbach,
    K. Bhaskaran-Nair, J. Brabec, K. Lopata, S. A. Fischer, S. Krishnamoorthy,
     M. Jacquelin, W. Ma, M. Klemm, O. Villa, Y. Chen, V. Anisimov, F. Aquino,
    S. Hirata, M. T. Hackler, Eric Hermes, L. Jensen, J. E. Moore, J. C. Becca,
      V. Konjkov, T. Risthaus, M. Malagoli, A. Marenich, A. Otero-de-la-Roza,
        J. Mullin, P. Nichols, R. Peverati, J. Pittner, Y. Zhao, P.-D. Fan,
        A. Fonari, M. J. Williamson, R. J. Harrison, J. R. Rehr, M. Dupuis,
     D. Silverstein, D. M. A. Smith, J. Nieplocha, V. Tipparaju, M. Krishnan,
     B. E. Van Kuiken, A. Vazquez-Mayagoitia, M. Swart, Q. Wu, T. Van Voorhis,
     A. A. Auer, M. Nooijen, L. D. Crosby, E. Brown, G. Cisneros, G. I. Fann,
   H. Fruchtl, J. Garza, K. Hirao, R. A. Kendall, J. A. Nichols, K. Tsemekhman,
    K. Wolinski, J. Anchell, D. E. Bernholdt, P. Borowski, T. Clark, D. Clerc,
   H. Dachsel, M. J. O. Deegan, K. Dyall, D. Elwood, E. Glendening, M. Gutowski,
   A. C. Hess, J. Jaffe, B. G. Johnson, J. Ju, R. Kobayashi, R. Kutteh, Z. Lin,
   R. Littlefield, X. Long, B. Meng, T. Nakajima, S. Niu, L. Pollack, M. Rosing,
   K. Glaesemann, G. Sandrone, M. Stave, H. Taylor, G. Thomas, J. H. van Lenthe,
                               A. T. Wong, Z. Zhang.

 Total times  cpu:      135.8s     wall:      198.0s
