 argument  1 = input.nw
  NWChem w/ OpenMP: maximum threads =    1



============================== echo of input deck ==============================
 echo
 start H2O
 title "H2O"

 memory total 24 gb

 geometry units bohr
 symmetry c1
        O  0.00000000  0.00000000  0.00000000
        H  0.00000000  1.81579825  0.00000000
        H  1.72558000 -0.64860000  0.00000000
 end

 basis spherical
   * library cc-pVDZ
 end

 mcscf
   active  8
   actelec 10
   multiplicity 1
   maxiter 40
   vectors input h2o.mos
   vectors output h2o.mos
 end

 task mcscf

 scf
   vectors input h2o.mos
   vectors output h2o-trash.mos
   noscf
 end

 tce
   2eorb
   2emet 13
   ccsd
   maxiter 300
 end

# set tce:print_integrals T
# set tce:qorb 8
# set tce:qela 5
# set tce:qelb 5

 set tce:qducc T
 set tce:nactv 3
 set tce:nonhf T
 set tce:ducc_model 6

 set tce:printtol 0.02

 task tce
================================================================================


                                         
                                         


             Northwest Computational Chemistry Package (NWChem) 7.0.1
             --------------------------------------------------------


                    Environmental Molecular Sciences Laboratory
                       Pacific Northwest National Laboratory
                                Richland, WA 99352

                              Copyright (c) 1994-2020
                       Pacific Northwest National Laboratory
                            Battelle Memorial Institute

             NWChem is an open-source computational chemistry package
                        distributed under the terms of the
                      Educational Community License (ECL) 2.0
             A copy of the license is included with this distribution
                              in the LICENSE.TXT file

                                  ACKNOWLEDGMENT
                                  --------------

            This software and its documentation were developed at the
            EMSL at Pacific Northwest National Laboratory, a multiprogram
            national laboratory, operated for the U.S. Department of Energy
            by Battelle under Contract Number DE-AC05-76RL01830. Support
            for this work was provided by the Department of Energy Office
            of Biological and Environmental Research, Office of Basic
            Energy Sciences, and the Office of Advanced Scientific Computing.


           Job information
           ---------------

    hostname        = WE46210
    program         = /home/baum612/code/nwchem/bin/LINUX64/nwchem
    date            = Wed Sep  4 02:35:59 2024

    compiled        = Wed_Sep_04_02:00:17_2024
    source          = /home/baum612/code/nwchem
    nwchem branch   = 7.0.0
    nwchem revision = nwchem_on_git-4191-g39d87d64de
    ga revision     = 5.8.1
    use scalapack   = F
    input           = input.nw
    prefix          = H2O.
    data base       = ./H2O.db
    status          = startup
    nproc           =        1
    time left       =     -1s



           Memory information
           ------------------

    heap     =  805306366 doubles =   6144.0 Mbytes
    stack    =  805306363 doubles =   6144.0 Mbytes
    global   = 1610612736 doubles =  12288.0 Mbytes (distinct from heap & stack)
    total    = 3221225465 doubles =  24576.0 Mbytes
    verify   = yes
    hardfail = no 


           Directory information
           ---------------------

  0 permanent = .
  0 scratch   = .




                                NWChem Input Module
                                -------------------


                                        H2O
                                        ---
 Turning off AUTOSYM since
 SYMMETRY directive was detected!


          ------
          auto-z
          ------
  no constraints, skipping    0.0000000000000000     
  no constraints, skipping    0.0000000000000000     


                             Geometry "geometry" -> ""
                             -------------------------

 Output coordinates in a.u. (scale by  1.000000000 to convert to a.u.)

  No.       Tag          Charge          X              Y              Z
 ---- ---------------- ---------- -------------- -------------- --------------
    1 O                    8.0000    -0.17255800    -0.11671983     0.00000000
    2 H                    1.0000    -0.17255800     1.69907843     0.00000000
    3 H                    1.0000     1.55302200    -0.76531983     0.00000000

      Atomic Mass 
      ----------- 

      O                 15.994910
      H                  1.007825


 Effective nuclear repulsion energy (a.u.)       9.0778597194

            Nuclear Dipole moment (a.u.) 
            ----------------------------
        X                 Y               Z
 ---------------- ---------------- ----------------
    -0.0000000000     0.0000000000     0.0000000000



                                Z-matrix (autoz)
                                -------- 

 Units are Angstrom for bonds and degrees for angles

      Type          Name      I     J     K     L     M      Value
      ----------- --------  ----- ----- ----- ----- ----- ----------
    1 Stretch                  1     2                       0.96088
    2 Stretch                  1     3                       0.97551
    3 Bend                     2     1     3               110.59992


            XYZ format geometry
            -------------------
     3
 geometry
 O                    -0.09131377    -0.06176548     0.00000000
 H                    -0.09131377     0.89911365     0.00000000
 H                     0.82182391    -0.40498984     0.00000000

 ==============================================================================
                                internuclear distances
 ------------------------------------------------------------------------------
       center one      |      center two      | atomic units |       a.u.
 ------------------------------------------------------------------------------
    2 H                |   1 O                |     1.81580  |     1.81580
    3 H                |   1 O                |     1.84345  |     1.84345
 ------------------------------------------------------------------------------
                         number of included internuclear distances:          2
 ==============================================================================



 ==============================================================================
                                 internuclear angles
 ------------------------------------------------------------------------------
        center 1       |       center 2       |       center 3       |  degrees
 ------------------------------------------------------------------------------
    2 H                |   1 O                |   3 H                |   110.60
 ------------------------------------------------------------------------------
                            number of included internuclear angles:          1
 ==============================================================================





 Summary of "ao basis" -> "" (spherical)
 ------------------------------------------------------------------------------
       Tag                 Description            Shells   Functions and Types
 ---------------- ------------------------------  ------  ---------------------
 *                          cc-pVDZ                   on all atoms 


                      Basis "ao basis" -> "ao basis" (spherical)
                      -----
  O (Oxygen)
  ----------
            Exponent  Coefficients 
       -------------- ---------------------------------------------------------
  1 S  1.17200000E+04  0.000710
  1 S  1.75900000E+03  0.005470
  1 S  4.00800000E+02  0.027837
  1 S  1.13700000E+02  0.104800
  1 S  3.70300000E+01  0.283062
  1 S  1.32700000E+01  0.448719
  1 S  5.02500000E+00  0.270952
  1 S  1.01300000E+00  0.015458

  2 S  1.17200000E+04 -0.000160
  2 S  1.75900000E+03 -0.001263
  2 S  4.00800000E+02 -0.006267
  2 S  1.13700000E+02 -0.025716
  2 S  3.70300000E+01 -0.070924
  2 S  1.32700000E+01 -0.165411
  2 S  5.02500000E+00 -0.116955
  2 S  1.01300000E+00  0.557368

  3 S  3.02300000E-01  1.000000

  4 P  1.77000000E+01  0.043018
  4 P  3.85400000E+00  0.228913
  4 P  1.04600000E+00  0.508728

  5 P  2.75300000E-01  1.000000

  6 D  1.18500000E+00  1.000000

  H (Hydrogen)
  ------------
            Exponent  Coefficients 
       -------------- ---------------------------------------------------------
  1 S  1.30100000E+01  0.019685
  1 S  1.96200000E+00  0.137977
  1 S  4.44600000E-01  0.478148

  2 S  1.22000000E-01  1.000000

  3 P  7.27000000E-01  1.000000



 Summary of "ao basis" -> "ao basis" (spherical)
 ------------------------------------------------------------------------------
       Tag                 Description            Shells   Functions and Types
 ---------------- ------------------------------  ------  ---------------------
 O                          cc-pVDZ                  6       14   3s2p1d
 H                          cc-pVDZ                  3        5   2s1p



                            NWChem Direct MCSCF Module
                            --------------------------


                                        H2O


     -----------------------------------
       Basis functions:             24
       Inactive shells:              0
       Active shells:                8
       Active electrons:            10
       Symmetry:                    a       
       Multiplicity:                 1
       Orbital rotations:          128
     -----------------------------------

     -----------------------------------
       E2 extrapolation:             F
       Conjugacy:                    T
       Micro CI relax:               T
       Canonical orbitals:           T
       Maximum iterations:          40
       Converge threshold:    1.00E-04
       Conjugacy resets:            20
       Initial levelshift:        0.10
     -----------------------------------

 Loading old vectors from job with title :

H2O


   input molecular orbitals = ./h2o.mos
  output molecular orbtials = ./h2o.mos

       No. of determinants:          3136


  Starting Orbital Energies
   -20.544270    -1.334408    -0.726865    -0.568639    -0.511023    -0.025908
    -0.024704    -0.014168     0.465005     0.512554     1.039546     1.082812
     1.453789     1.484761     1.697952     1.866819     1.886286     2.346955
     2.373236     3.236220     3.344484     3.441630     3.881996     4.045476

  Orbital Symmetry Irreps
a    a    a    a    a    a    a    a    a    a    a    a    a    a    a   
a    a    a    a    a    a    a    a    a   

 #quartets = 3.081D+03 #integrals = 2.131D+04 #direct =  0.0% #cached =100.0%


 Integral file          = ./H2O.aoints.0
 Record size in doubles =  65536        No. of integs per rec  =  43688
 Max. records in memory =      4        Max. records in file   = 232312
 No. of bits per label  =      8        No. of bits per value  =     64




          %%%%% MacroIteration   1 %%%%%


          Number of sigma calls:       14
                       o<<<<< (aa):             0.00
                       o<<<<< (bb):             0.00
                       o<<<<< (ab):             0.03
                       o<<<<< (total)           0.03
                       o<<<<< (aa) ff           0.00
                       o<<<<< (aa) gop          0.00
                       o<<<<< (aa) dot          0.00
                       o<<<<< (ab) str          0.00
                       o<<<<< (ab) gath         0.00
                       o<<<<< (ab) dotab        0.00
                       o<<<<< (ab) scat         0.00
                       o<<<<< (ab) sync         0.00
                       o<<<<< Density           0.01
                       o<<<<< Density one       0.00
                       o<<<<< Density two       0.00
                       o<<<<< Density ab        0.00
                       o<<<<< Spin adapt        0.29
                       o<<<<< Symm adapt        0.00

                       o<<<<< (ab) max sync:      0.00

           >>>| Valence CI:            -85.191796383212
           >>>| MCSCF energy:          -76.113936663802
           >>>| Gradient norm:          0.982995676D-02

                              ----- Line search ------

        step       energy         lsg     num-lsg   num-lsh   lsrat    time
      ------- ---------------- --------- --------- --------- ------- --------
       0.0000     -76.11393666 -1.28D-05  0.00D+00  0.00D+00 0.0D+00      0.4

          Number of sigma calls:       14
                       o<<<<< (aa):             0.00
                       o<<<<< (bb):             0.00
                       o<<<<< (ab):             0.05
                       o<<<<< (total)           0.05
                       o<<<<< (aa) ff           0.00
                       o<<<<< (aa) gop          0.00
                       o<<<<< (aa) dot          0.00
                       o<<<<< (ab) str          0.00
                       o<<<<< (ab) gath         0.00
                       o<<<<< (ab) dotab        0.00
                       o<<<<< (ab) scat         0.00
                       o<<<<< (ab) sync         0.00
                       o<<<<< Density           0.00
                       o<<<<< Density one       0.00
                       o<<<<< Density two       0.00
                       o<<<<< Density ab        0.00
                       o<<<<< Spin adapt        0.26
                       o<<<<< Symm adapt        0.00

                       o<<<<< (ab) max sync:      0.00
       1.0000     -76.11394323 -3.35D-07 -3.35D-07  1.25D-05 2.6D-02      0.8
     --- Orbitals canonicalized ---



          %%%%% MacroIteration   2 %%%%%


          Number of sigma calls:       11
                       o<<<<< (aa):             0.00
                       o<<<<< (bb):             0.00
                       o<<<<< (ab):             0.03
                       o<<<<< (total)           0.03
                       o<<<<< (aa) ff           0.00
                       o<<<<< (aa) gop          0.00
                       o<<<<< (aa) dot          0.00
                       o<<<<< (ab) str          0.00
                       o<<<<< (ab) gath         0.00
                       o<<<<< (ab) dotab        0.00
                       o<<<<< (ab) scat         0.00
                       o<<<<< (ab) sync         0.00
                       o<<<<< Density           0.01
                       o<<<<< Density one       0.00
                       o<<<<< Density two       0.00
                       o<<<<< Density ab        0.01
                       o<<<<< Spin adapt        0.20
                       o<<<<< Symm adapt        0.00

                       o<<<<< (ab) max sync:      0.00

           >>>| Valence CI:            -85.191802946666
           >>>| MCSCF energy:          -76.113943227257
           >>>| Gradient norm:          0.697654655D-03
     --- Warning:    2 Hessian diagonals < 0.05 ---
     --- Conjugacy reset ---

                              ----- Line search ------

        step       energy         lsg     num-lsg   num-lsh   lsrat    time
      ------- ---------------- --------- --------- --------- ------- --------
       0.0000     -76.11394323 -8.98D-08  0.00D+00  0.00D+00 0.0D+00      1.1

          Number of sigma calls:        9
                       o<<<<< (aa):             0.00
                       o<<<<< (bb):             0.00
                       o<<<<< (ab):             0.02
                       o<<<<< (total)           0.02
                       o<<<<< (aa) ff           0.00
                       o<<<<< (aa) gop          0.00
                       o<<<<< (aa) dot          0.00
                       o<<<<< (ab) str          0.00
                       o<<<<< (ab) gath         0.00
                       o<<<<< (ab) dotab        0.00
                       o<<<<< (ab) scat         0.00
                       o<<<<< (ab) sync         0.00
                       o<<<<< Density           0.01
                       o<<<<< Density one       0.00
                       o<<<<< Density two       0.00
                       o<<<<< Density ab        0.00
                       o<<<<< Spin adapt        0.24
                       o<<<<< Symm adapt        0.00

                       o<<<<< (ab) max sync:      0.00
       1.0000     -76.11394329 -2.59D-08 -2.59D-08  6.39D-08 2.9D-01      1.3

          Number of sigma calls:        8
                       o<<<<< (aa):             0.00
                       o<<<<< (bb):             0.00
                       o<<<<< (ab):             0.03
                       o<<<<< (total)           0.03
                       o<<<<< (aa) ff           0.00
                       o<<<<< (aa) gop          0.00
                       o<<<<< (aa) dot          0.00
                       o<<<<< (ab) str          0.00
                       o<<<<< (ab) gath         0.00
                       o<<<<< (ab) dotab        0.00
                       o<<<<< (ab) scat         0.00
                       o<<<<< (ab) sync         0.00
                       o<<<<< Density           0.01
                       o<<<<< Density one       0.00
                       o<<<<< Density two       0.00
                       o<<<<< Density ab        0.01
                       o<<<<< Spin adapt        0.18
                       o<<<<< Symm adapt        0.00

                       o<<<<< (ab) max sync:      0.00
       1.4048     -76.11394329 -1.72D-11 -1.59D-11  6.39D-08 1.9D-04      1.6



          %%%%% MacroIteration   3 %%%%%


          Number of sigma calls:        1
                       o<<<<< (aa):             0.00
                       o<<<<< (bb):             0.00
                       o<<<<< (ab):             0.00
                       o<<<<< (total)           0.00
                       o<<<<< (aa) ff           0.00
                       o<<<<< (aa) gop          0.00
                       o<<<<< (aa) dot          0.00
                       o<<<<< (ab) str          0.00
                       o<<<<< (ab) gath         0.00
                       o<<<<< (ab) dotab        0.00
                       o<<<<< (ab) scat         0.00
                       o<<<<< (ab) sync         0.00
                       o<<<<< Density           0.01
                       o<<<<< Density one       0.00
                       o<<<<< Density two       0.00
                       o<<<<< Density ab        0.01
                       o<<<<< Spin adapt        0.00
                       o<<<<< Symm adapt        0.00

                       o<<<<< (ab) max sync:      0.00

           >>>| Valence CI:            -85.191803009753
           >>>| MCSCF energy:          -76.113943290343
           >>>| Gradient norm:          0.132332061D-03
     --- Warning:    2 Hessian diagonals < 0.05 ---

                              ----- Line search ------

        step       energy         lsg     num-lsg   num-lsh   lsrat    time
      ------- ---------------- --------- --------- --------- ------- --------
       0.0000     -76.11394329 -2.00D-09  0.00D+00  0.00D+00 0.0D+00      1.6

          Number of sigma calls:        8
                       o<<<<< (aa):             0.00
                       o<<<<< (bb):             0.00
                       o<<<<< (ab):             0.02
                       o<<<<< (total)           0.03
                       o<<<<< (aa) ff           0.00
                       o<<<<< (aa) gop          0.00
                       o<<<<< (aa) dot          0.00
                       o<<<<< (ab) str          0.00
                       o<<<<< (ab) gath         0.00
                       o<<<<< (ab) dotab        0.00
                       o<<<<< (ab) scat         0.00
                       o<<<<< (ab) sync         0.00
                       o<<<<< Density           0.01
                       o<<<<< Density one       0.00
                       o<<<<< Density two       0.00
                       o<<<<< Density ab        0.01
                       o<<<<< Spin adapt        0.22
                       o<<<<< Symm adapt        0.00

                       o<<<<< (ab) max sync:      0.00
       1.0000     -76.11394329 -5.12D-10 -5.12D-10  1.49D-09 2.6D-01      1.9

          Number of sigma calls:        7
                       o<<<<< (aa):             0.00
                       o<<<<< (bb):             0.00
                       o<<<<< (ab):             0.01
                       o<<<<< (total)           0.02
                       o<<<<< (aa) ff           0.00
                       o<<<<< (aa) gop          0.00
                       o<<<<< (aa) dot          0.00
                       o<<<<< (ab) str          0.00
                       o<<<<< (ab) gath         0.00
                       o<<<<< (ab) dotab        0.00
                       o<<<<< (ab) scat         0.00
                       o<<<<< (ab) sync         0.00
                       o<<<<< Density           0.01
                       o<<<<< Density one       0.00
                       o<<<<< Density two       0.00
                       o<<<<< Density ab        0.01
                       o<<<<< Spin adapt        0.15
                       o<<<<< Symm adapt        0.00

                       o<<<<< (ab) max sync:      0.00
       1.3437     -76.11394329  8.44D-15 -7.66D-13  1.49D-09 4.2D-06      2.1



          %%%%% MacroIteration   4 %%%%%


          Number of sigma calls:        1
                       o<<<<< (aa):             0.00
                       o<<<<< (bb):             0.00
                       o<<<<< (ab):             0.00
                       o<<<<< (total)           0.00
                       o<<<<< (aa) ff           0.00
                       o<<<<< (aa) gop          0.00
                       o<<<<< (aa) dot          0.00
                       o<<<<< (ab) str          0.00
                       o<<<<< (ab) gath         0.00
                       o<<<<< (ab) dotab        0.00
                       o<<<<< (ab) scat         0.00
                       o<<<<< (ab) sync         0.00
                       o<<<<< Density           0.01
                       o<<<<< Density one       0.00
                       o<<<<< Density two       0.00
                       o<<<<< Density ab        0.01
                       o<<<<< Spin adapt        0.00
                       o<<<<< Symm adapt        0.00

                       o<<<<< (ab) max sync:      0.00

           >>>| Valence CI:            -85.191803011099
           >>>| MCSCF energy:          -76.113943291690
           >>>| Gradient norm:          0.414468398D-04




     ==============================
            MCSCF Converged
     ==============================



          Canonical Eigenvalues

              1      
    1  -20.5439
    2   -1.3356
    3   -0.7282
    4   -0.5690
    5   -0.5112
    6   -0.0258
    7   -0.0246
    8   -0.0142
    9    0.4644
   10    0.5125
   11    1.0396
   12    1.0823
   13    1.4543
   14    1.4841
   15    1.6983
   16    1.8667
   17    1.8887
   18    2.3476
   19    2.3830
   20    3.2379
   21    3.3473
   22    3.4447
   23    3.8843
   24    4.0475


          Converged CI vector

   Index           Coefficient          Config. Occupation
         1         -0.97671637          1  2  3  4  5  1  2  3  4  5
        22          0.06869392          1  2  3  4  5  1  2  3  4  8
         3          0.04313278          1  2  3  4  5  1  2  3  5  6
        27         -0.02074209          1  2  3  4  5  1  2  3  6  8
         9         -0.04062770          1  2  3  4  5  1  2  4  5  7
        38          0.02481052          1  2  3  4  5  1  2  4  7  8
      1177          0.06869392          1  2  3  4  8  1  2  3  4  5
      1198          0.04857719          1  2  3  4  8  1  2  3  4  8
      1179          0.02538362          1  2  3  4  8  1  2  3  5  6
      1185         -0.03391037          1  2  3  4  8  1  2  4  5  7
      1181         -0.02150389          1  2  3  4  8  1  3  4  5  6
       113          0.04313278          1  2  3  5  6  1  2  3  4  5
       134          0.02538362          1  2  3  5  6  1  2  3  4  8
       115          0.04044344          1  2  3  5  6  1  2  3  5  6
       121         -0.03491823          1  2  3  5  6  1  2  4  5  7
       117         -0.02797449          1  2  3  5  6  1  3  4  5  6
       400          0.02166168          1  2  3  5  7  1  2  3  5  7
      1457         -0.02074209          1  2  3  6  8  1  2  3  4  5
       172          0.02906051          1  2  4  5  6  1  2  4  5  6
       449         -0.04062770          1  2  4  5  7  1  2  3  4  5
       470         -0.03391037          1  2  4  5  7  1  2  3  4  8
       451         -0.03491823          1  2  4  5  7  1  2  3  5  6
       457          0.06207578          1  2  4  5  7  1  2  4  5  7
       453          0.02607876          1  2  4  5  7  1  3  4  5  6
      2073          0.02481052          1  2  4  7  8  1  2  3  4  5
       246         -0.02150389          1  3  4  5  6  1  2  3  4  8
       227         -0.02797449          1  3  4  5  6  1  2  3  5  6
       233          0.02607876          1  3  4  5  6  1  2  4  5  7
       229          0.02823180          1  3  4  5  6  1  3  4  5  6

          Number of sigma calls:        1
                       o<<<<< (aa):             0.00
                       o<<<<< (bb):             0.00
                       o<<<<< (ab):             0.00
                       o<<<<< (total)           0.00
                       o<<<<< (aa) ff           0.00
                       o<<<<< (aa) gop          0.00
                       o<<<<< (aa) dot          0.00
                       o<<<<< (ab) str          0.00
                       o<<<<< (ab) gath         0.00
                       o<<<<< (ab) dotab        0.00
                       o<<<<< (ab) scat         0.00
                       o<<<<< (ab) sync         0.00
                       o<<<<< Density           0.01
                       o<<<<< Density one       0.00
                       o<<<<< Density two       0.00
                       o<<<<< Density ab        0.01
                       o<<<<< Spin adapt        0.00
                       o<<<<< Symm adapt        0.00

                       o<<<<< (ab) max sync:      0.00



          Natural orbital occupation numbers

              1      
    1    2.0000
    2    1.9988
    3    1.9838
    4    1.9775
    5    1.9764
    6    0.0243
    7    0.0233
    8    0.0158


          Number of sigma calls:       14
                       o<<<<< (aa):             0.00
                       o<<<<< (bb):             0.00
                       o<<<<< (ab):             0.03
                       o<<<<< (total)           0.04
                       o<<<<< (aa) ff           0.00
                       o<<<<< (aa) gop          0.00
                       o<<<<< (aa) dot          0.00
                       o<<<<< (ab) str          0.00
                       o<<<<< (ab) gath         0.00
                       o<<<<< (ab) dotab        0.00
                       o<<<<< (ab) scat         0.00
                       o<<<<< (ab) sync         0.00
                       o<<<<< Density           0.01
                       o<<<<< Density one       0.00
                       o<<<<< Density two       0.00
                       o<<<<< Density ab        0.01
                       o<<<<< Spin adapt        0.22
                       o<<<<< Symm adapt        0.00

                       o<<<<< (ab) max sync:      0.00


       Final MCSCF results 
       ------------------- 

       Total MCSCF energy =    -76.113943291689
            Gradient norm =      4.1D-05

    CPU time for solution =      2.4s
   Wall time for solution =      4.7s



                        Analysis of MCSCF natural orbitals
                        ----------------------------------

 Vector    1  Occ=1.999991D+00  E=-2.054390D+01  Symmetry=a
              MO Center= -9.1D-02, -6.2D-02, -6.1D-10, r^2= 1.7D-02
   Bfn.  Coefficient  Atom+Function         Bfn.  Coefficient  Atom+Function  
  ----- ------------  ---------------      ----- ------------  ---------------
     1      0.997647  1 O  s          

 Vector    2  Occ=1.998848D+00  E=-1.335625D+00  Symmetry=a
              MO Center= -3.1D-01, -2.1D-01,  8.7D-07, r^2= 4.0D-01
   Bfn.  Coefficient  Atom+Function         Bfn.  Coefficient  Atom+Function  
  ----- ------------  ---------------      ----- ------------  ---------------
     3      0.509042  1 O  s                  2      0.441582  1 O  s          
     4     -0.220716  1 O  px                 7     -0.188965  1 O  px         
     5     -0.153664  1 O  py         

 Vector    3  Occ=1.983798D+00  E=-7.281599D-01  Symmetry=a
              MO Center= -7.3D-02, -4.8D-02, -6.5D-07, r^2= 6.1D-01
   Bfn.  Coefficient  Atom+Function         Bfn.  Coefficient  Atom+Function  
  ----- ------------  ---------------      ----- ------------  ---------------
     6      0.626085  1 O  pz                 9      0.501154  1 O  pz         

 Vector    4  Occ=1.977517D+00  E=-5.690140D-01  Symmetry=a
              MO Center=  5.4D-02,  3.5D-01, -2.1D-07, r^2= 5.6D-01
   Bfn.  Coefficient  Atom+Function         Bfn.  Coefficient  Atom+Function  
  ----- ------------  ---------------      ----- ------------  ---------------
     5      0.417564  1 O  py                15      0.383720  2 H  s          
     4      0.258419  1 O  px                 8      0.217903  1 O  py         
     7      0.175742  1 O  px         

 Vector    5  Occ=1.976421D+00  E=-5.111985D-01  Symmetry=a
              MO Center=  2.6D-01, -1.4D-01, -3.8D-08, r^2= 7.0D-01
   Bfn.  Coefficient  Atom+Function         Bfn.  Coefficient  Atom+Function  
  ----- ------------  ---------------      ----- ------------  ---------------
     4      0.416645  1 O  px                20      0.410764  3 H  s          
     5     -0.262187  1 O  py                 7      0.202735  1 O  px         
    15     -0.197401  2 H  s          

 Vector    6  Occ=2.429073D-02  E=-2.583762D-02  Symmetry=a
              MO Center=  5.2D-01, -1.7D-01, -2.4D-07, r^2= 6.5D-01
   Bfn.  Coefficient  Atom+Function         Bfn.  Coefficient  Atom+Function  
  ----- ------------  ---------------      ----- ------------  ---------------
     4      0.833346  1 O  px                20     -0.688489  3 H  s          
     2      0.452068  1 O  s                 21     -0.188656  3 H  s          
     7     -0.161688  1 O  px         

 Vector    7  Occ=2.334775D-02  E=-2.456579D-02  Symmetry=a
              MO Center= -5.1D-02,  4.9D-01, -1.1D-07, r^2= 7.0D-01
   Bfn.  Coefficient  Atom+Function         Bfn.  Coefficient  Atom+Function  
  ----- ------------  ---------------      ----- ------------  ---------------
     5      0.891306  1 O  py                15     -0.711710  2 H  s          
     2      0.277782  1 O  s                 16     -0.209208  2 H  s          
    20      0.201940  3 H  s          

 Vector    8  Occ=1.578664D-02  E=-1.417400D-02  Symmetry=a
              MO Center= -5.0D-02, -3.2D-02, -8.6D-07, r^2= 1.1D+00
   Bfn.  Coefficient  Atom+Function         Bfn.  Coefficient  Atom+Function  
  ----- ------------  ---------------      ----- ------------  ---------------
     6      0.966873  1 O  pz                 9     -0.945584  1 O  pz         

 Vector    9  Occ=0.000000D+00  E= 4.644299D-01  Symmetry=a
              MO Center=  3.7D-01,  2.9D-01,  5.4D-07, r^2= 3.7D+00
   Bfn.  Coefficient  Atom+Function         Bfn.  Coefficient  Atom+Function  
  ----- ------------  ---------------      ----- ------------  ---------------
     3      1.135123  1 O  s                 16     -1.026140  2 H  s          
    21     -0.982442  3 H  s                  7      0.398730  1 O  px         
    20      0.350888  3 H  s                 15      0.344870  2 H  s          
     8      0.289783  1 O  py                 4     -0.185536  1 O  px         
    18      0.180037  2 H  py                 2     -0.156796  1 O  s          

 Vector   10  Occ=0.000000D+00  E= 5.124528D-01  Symmetry=a
              MO Center=  5.2D-01,  3.2D-01,  2.6D-09, r^2= 4.2D+00
   Bfn.  Coefficient  Atom+Function         Bfn.  Coefficient  Atom+Function  
  ----- ------------  ---------------      ----- ------------  ---------------
    21     -1.641521  3 H  s                 16      1.623395  2 H  s          
    20      0.507299  3 H  s                  8     -0.502487  1 O  py         
    15     -0.483746  2 H  s                  7      0.349647  1 O  px         
    22      0.156336  3 H  px                18     -0.153890  2 H  py         

 Vector   11  Occ=0.000000D+00  E= 1.039628D+00  Symmetry=a
              MO Center=  9.7D-02,  3.2D-02, -8.1D-08, r^2= 1.3D+00
   Bfn.  Coefficient  Atom+Function         Bfn.  Coefficient  Atom+Function  
  ----- ------------  ---------------      ----- ------------  ---------------
    15     -0.877596  2 H  s                  7      0.821597  1 O  px         
    20     -0.764318  3 H  s                  3      0.709052  1 O  s          
     8      0.702224  1 O  py                 4     -0.385439  1 O  px         
     5     -0.288871  1 O  py                17      0.197432  2 H  px         
    23      0.190492  3 H  py         

 Vector   12  Occ=0.000000D+00  E= 1.082309D+00  Symmetry=a
              MO Center= -1.7D-01, -8.4D-02, -6.1D-09, r^2= 1.6D+00
   Bfn.  Coefficient  Atom+Function         Bfn.  Coefficient  Atom+Function  
  ----- ------------  ---------------      ----- ------------  ---------------
     8      1.441547  1 O  py                 7     -1.081990  1 O  px         
    20      0.852823  3 H  s                 15     -0.765226  2 H  s          
    16     -0.544576  2 H  s                 21      0.537648  3 H  s          
     5     -0.318150  1 O  py                 4      0.265085  1 O  px         
    18      0.163520  2 H  py                23      0.158165  3 H  py         

 Vector   13  Occ=0.000000D+00  E= 1.454308D+00  Symmetry=a
              MO Center=  3.4D-01,  2.2D-01, -2.4D-08, r^2= 1.1D+00
   Bfn.  Coefficient  Atom+Function         Bfn.  Coefficient  Atom+Function  
  ----- ------------  ---------------      ----- ------------  ---------------
    24     -0.683512  3 H  pz                19      0.676839  2 H  pz         

 Vector   14  Occ=0.000000D+00  E= 1.484083D+00  Symmetry=a
              MO Center= -8.2D-02, -6.0D-02,  1.1D-07, r^2= 1.4D+00
   Bfn.  Coefficient  Atom+Function         Bfn.  Coefficient  Atom+Function  
  ----- ------------  ---------------      ----- ------------  ---------------
     3      0.796303  1 O  s                  2     -0.699400  1 O  s          
     7     -0.622288  1 O  px                17      0.598051  2 H  px         
    23      0.538148  3 H  py                 8     -0.432418  1 O  py         
     1     -0.283160  1 O  s                 22      0.262557  3 H  px         
    16     -0.230425  2 H  s                  4      0.227656  1 O  px         

 Vector   15  Occ=0.000000D+00  E= 1.698254D+00  Symmetry=a
              MO Center=  1.9D-01,  1.3D-01, -4.4D-08, r^2= 1.3D+00
   Bfn.  Coefficient  Atom+Function         Bfn.  Coefficient  Atom+Function  
  ----- ------------  ---------------      ----- ------------  ---------------
    19     -0.772668  2 H  pz                24     -0.763228  3 H  pz         
     9      0.736021  1 O  pz         

 Vector   16  Occ=0.000000D+00  E= 1.866716D+00  Symmetry=a
              MO Center=  9.5D-02,  4.5D-02,  5.2D-07, r^2= 1.2D+00
   Bfn.  Coefficient  Atom+Function         Bfn.  Coefficient  Atom+Function  
  ----- ------------  ---------------      ----- ------------  ---------------
     3      2.738847  1 O  s                  2     -1.531411  1 O  s          
    15     -0.803983  2 H  s                 20     -0.732051  3 H  s          
     1     -0.698150  1 O  s                  7      0.673939  1 O  px         
     8      0.551508  1 O  py                23     -0.427163  3 H  py         
    16     -0.355113  2 H  s                 21     -0.321462  3 H  s          

 Vector   17  Occ=0.000000D+00  E= 1.888736D+00  Symmetry=a
              MO Center=  2.9D-01,  2.1D-01,  5.0D-09, r^2= 1.3D+00
   Bfn.  Coefficient  Atom+Function         Bfn.  Coefficient  Atom+Function  
  ----- ------------  ---------------      ----- ------------  ---------------
    17      0.829645  2 H  px                 8      0.804001  1 O  py         
    23     -0.727155  3 H  py                 7     -0.617536  1 O  px         
    20      0.488609  3 H  s                 15     -0.409053  2 H  s          
    22     -0.293516  3 H  px         

 Vector   18  Occ=0.000000D+00  E= 2.347620D+00  Symmetry=a
              MO Center=  7.5D-01, -3.3D-01,  1.2D-08, r^2= 8.0D-01
   Bfn.  Coefficient  Atom+Function         Bfn.  Coefficient  Atom+Function  
  ----- ------------  ---------------      ----- ------------  ---------------
    22      1.263265  3 H  px                 3      1.037180  1 O  s          
    20     -0.555050  3 H  s                  4      0.494466  1 O  px         
    23     -0.488564  3 H  py                 7      0.419370  1 O  px         
    21     -0.397078  3 H  s                  2      0.371174  1 O  s          
    18      0.371084  2 H  py                15     -0.289396  2 H  s          


 Wrote Lagrangian and 1- and 2-particle density matrices to ./H2O.mcpdm


     Multipole analysis of the density
     ---------------------------------

     L   x y z        total        nuclear
     -   - - -        -----        -------
     0   0 0 0     -0.000000     10.000000

     1   1 0 0      0.598280     -0.000000
     1   0 1 0      0.409456      0.000000
     1   0 0 1      0.000000      0.000000

     2   2 0 0     -4.006822      2.679864
     2   1 1 0     -0.746648     -1.320621
     2   1 0 1     -0.000000      0.000000
     2   0 2 0     -3.474352      3.581570
     2   0 1 1     -0.000000      0.000000
     2   0 0 2     -5.277691      0.000000


  Mulliken analysis of the total density
  --------------------------------------

    Atom       Charge   Shell Charges
 -----------   ------   -------------------------------------------------------
    1 O    8     8.31   2.00  0.84  0.83  2.83  1.80  0.01
    2 H    1     0.85   0.69  0.08  0.08
    3 H    1     0.84   0.68  0.08  0.08

    Mulliken analysis of the active space density
    ---------------------------------------------

    Atom       Charge   Shell Charges
 -----------   ------   -------------------------------------------------------
    1 O    8     8.31   2.00  0.84  0.83  2.83  1.80  0.01
    2 H    1     0.85   0.69  0.08  0.08
    3 H    1     0.84   0.68  0.08  0.08

 Parallel integral file used       1 records with       0 large values


 Task  times  cpu:        2.4s     wall:        4.7s


                                NWChem Input Module
                                -------------------


                                 NWChem SCF Module
                                 -----------------


                                        H2O



  ao basis        = "ao basis"
  functions       =    24
  atoms           =     3
  closed shells   =     5
  open shells     =     0
  charge          =   0.00
  wavefunction    = RHF 
  input vectors   = ./h2o.mos
  output vectors  = ./h2o-trash.mos
  use symmetry    = F
  symmetry adapt  = F


 Summary of "ao basis" -> "ao basis" (spherical)
 ------------------------------------------------------------------------------
       Tag                 Description            Shells   Functions and Types
 ---------------- ------------------------------  ------  ---------------------
 O                          cc-pVDZ                  6       14   3s2p1d
 H                          cc-pVDZ                  3        5   2s1p



 Forming initial guess at       4.7s


 Loading old vectors from job with title :

H2O


 Starting SCF solution at       4.7s



 ----------------------------------------------
         Quadratically convergent ROHF

 Convergence threshold     :          1.000E-04
 Maximum no. of iterations :           30
 Final Fock-matrix accuracy:          1.000E-07
 ----------------------------------------------


 #quartets = 3.081D+03 #integrals = 2.131D+04 #direct =  0.0% #cached =100.0%


 Integral file          = ./H2O.aoints.0
 Record size in doubles =  65536        No. of integs per rec  =  43688
 Max. records in memory =      4        Max. records in file   = 232314
 No. of bits per label  =      8        No. of bits per value  =     64



       Final RHF  results 
       ------------------ 

         Total SCF energy =    -76.023977954078
      One-electron energy =   -122.940936471830
      Two-electron energy =     37.839098798342
 Nuclear repulsion energy =      9.077859719410

        Time for solution =      0.0s


             Final eigenvalues
             -----------------

              1      
    1  -20.5439
    2   -1.3356
    3   -0.7282
    4   -0.5690
    5   -0.5112
    6   -0.0258
    7   -0.0246
    8   -0.0142
    9    0.4644
   10    0.5125
   11    1.0396
   12    1.0823
   13    1.4543
   14    1.4841
   15    1.6983

                       ROHF Final Molecular Orbital Analysis
                       -------------------------------------

 Vector    2  Occ=2.000000D+00  E=-1.335625D+00
              MO Center= -3.1D-01, -2.1D-01,  8.7D-07, r^2= 4.0D-01
   Bfn.  Coefficient  Atom+Function         Bfn.  Coefficient  Atom+Function  
  ----- ------------  ---------------      ----- ------------  ---------------
     3      0.509042  1 O  s                  2      0.441582  1 O  s          
     4     -0.220716  1 O  px                 7     -0.188965  1 O  px         
     5     -0.153664  1 O  py         

 Vector    3  Occ=2.000000D+00  E=-7.281599D-01
              MO Center= -7.3D-02, -4.8D-02, -6.5D-07, r^2= 6.1D-01
   Bfn.  Coefficient  Atom+Function         Bfn.  Coefficient  Atom+Function  
  ----- ------------  ---------------      ----- ------------  ---------------
     6      0.626085  1 O  pz                 9      0.501154  1 O  pz         

 Vector    4  Occ=2.000000D+00  E=-5.690140D-01
              MO Center=  5.4D-02,  3.5D-01, -2.1D-07, r^2= 5.6D-01
   Bfn.  Coefficient  Atom+Function         Bfn.  Coefficient  Atom+Function  
  ----- ------------  ---------------      ----- ------------  ---------------
     5      0.417564  1 O  py                15      0.383720  2 H  s          
     4      0.258419  1 O  px                 8      0.217903  1 O  py         
     7      0.175742  1 O  px         

 Vector    5  Occ=2.000000D+00  E=-5.111985D-01
              MO Center=  2.6D-01, -1.4D-01, -3.8D-08, r^2= 7.0D-01
   Bfn.  Coefficient  Atom+Function         Bfn.  Coefficient  Atom+Function  
  ----- ------------  ---------------      ----- ------------  ---------------
     4      0.416645  1 O  px                20      0.410764  3 H  s          
     5     -0.262187  1 O  py                 7      0.202735  1 O  px         
    15     -0.197401  2 H  s          

 Vector    6  Occ=0.000000D+00  E=-2.583762D-02
              MO Center=  5.2D-01, -1.7D-01, -2.4D-07, r^2= 6.5D-01
   Bfn.  Coefficient  Atom+Function         Bfn.  Coefficient  Atom+Function  
  ----- ------------  ---------------      ----- ------------  ---------------
     4      0.833346  1 O  px                20     -0.688489  3 H  s          
     2      0.452068  1 O  s                 21     -0.188656  3 H  s          
     7     -0.161688  1 O  px         

 Vector    7  Occ=0.000000D+00  E=-2.456579D-02
              MO Center= -5.1D-02,  4.9D-01, -1.1D-07, r^2= 7.0D-01
   Bfn.  Coefficient  Atom+Function         Bfn.  Coefficient  Atom+Function  
  ----- ------------  ---------------      ----- ------------  ---------------
     5      0.891306  1 O  py                15     -0.711710  2 H  s          
     2      0.277782  1 O  s                 16     -0.209208  2 H  s          
    20      0.201940  3 H  s          

 Vector    8  Occ=0.000000D+00  E=-1.417400D-02
              MO Center= -5.0D-02, -3.2D-02, -8.6D-07, r^2= 1.1D+00
   Bfn.  Coefficient  Atom+Function         Bfn.  Coefficient  Atom+Function  
  ----- ------------  ---------------      ----- ------------  ---------------
     6      0.966873  1 O  pz                 9     -0.945584  1 O  pz         

 Vector    9  Occ=0.000000D+00  E= 4.644299D-01
              MO Center=  3.7D-01,  2.9D-01,  5.4D-07, r^2= 3.7D+00
   Bfn.  Coefficient  Atom+Function         Bfn.  Coefficient  Atom+Function  
  ----- ------------  ---------------      ----- ------------  ---------------
     3      1.135123  1 O  s                 16     -1.026140  2 H  s          
    21     -0.982442  3 H  s                  7      0.398730  1 O  px         
    20      0.350888  3 H  s                 15      0.344870  2 H  s          
     8      0.289783  1 O  py                 4     -0.185536  1 O  px         
    18      0.180037  2 H  py                 2     -0.156796  1 O  s          

 Vector   10  Occ=0.000000D+00  E= 5.124528D-01
              MO Center=  5.2D-01,  3.2D-01,  2.6D-09, r^2= 4.2D+00
   Bfn.  Coefficient  Atom+Function         Bfn.  Coefficient  Atom+Function  
  ----- ------------  ---------------      ----- ------------  ---------------
    21     -1.641521  3 H  s                 16      1.623395  2 H  s          
    20      0.507299  3 H  s                  8     -0.502487  1 O  py         
    15     -0.483746  2 H  s                  7      0.349647  1 O  px         
    22      0.156336  3 H  px                18     -0.153890  2 H  py         

 Vector   11  Occ=0.000000D+00  E= 1.039628D+00
              MO Center=  9.7D-02,  3.2D-02, -8.1D-08, r^2= 1.3D+00
   Bfn.  Coefficient  Atom+Function         Bfn.  Coefficient  Atom+Function  
  ----- ------------  ---------------      ----- ------------  ---------------
    15     -0.877596  2 H  s                  7      0.821597  1 O  px         
    20     -0.764318  3 H  s                  3      0.709052  1 O  s          
     8      0.702224  1 O  py                 4     -0.385439  1 O  px         
     5     -0.288871  1 O  py                17      0.197432  2 H  px         
    23      0.190492  3 H  py         

 Vector   12  Occ=0.000000D+00  E= 1.082309D+00
              MO Center= -1.7D-01, -8.4D-02, -6.1D-09, r^2= 1.6D+00
   Bfn.  Coefficient  Atom+Function         Bfn.  Coefficient  Atom+Function  
  ----- ------------  ---------------      ----- ------------  ---------------
     8      1.441547  1 O  py                 7     -1.081990  1 O  px         
    20      0.852823  3 H  s                 15     -0.765226  2 H  s          
    16     -0.544576  2 H  s                 21      0.537648  3 H  s          
     5     -0.318150  1 O  py                 4      0.265085  1 O  px         
    18      0.163520  2 H  py                23      0.158165  3 H  py         

 Vector   13  Occ=0.000000D+00  E= 1.454308D+00
              MO Center=  3.4D-01,  2.2D-01, -2.4D-08, r^2= 1.1D+00
   Bfn.  Coefficient  Atom+Function         Bfn.  Coefficient  Atom+Function  
  ----- ------------  ---------------      ----- ------------  ---------------
    24     -0.683512  3 H  pz                19      0.676839  2 H  pz         

 Vector   14  Occ=0.000000D+00  E= 1.484083D+00
              MO Center= -8.2D-02, -6.0D-02,  1.1D-07, r^2= 1.4D+00
   Bfn.  Coefficient  Atom+Function         Bfn.  Coefficient  Atom+Function  
  ----- ------------  ---------------      ----- ------------  ---------------
     3      0.796303  1 O  s                  2     -0.699400  1 O  s          
     7     -0.622288  1 O  px                17      0.598051  2 H  px         
    23      0.538148  3 H  py                 8     -0.432418  1 O  py         
     1     -0.283160  1 O  s                 22      0.262557  3 H  px         
    16     -0.230425  2 H  s                  4      0.227656  1 O  px         

 Vector   15  Occ=0.000000D+00  E= 1.698254D+00
              MO Center=  1.9D-01,  1.3D-01, -4.4D-08, r^2= 1.3D+00
   Bfn.  Coefficient  Atom+Function         Bfn.  Coefficient  Atom+Function  
  ----- ------------  ---------------      ----- ------------  ---------------
    19     -0.772668  2 H  pz                24     -0.763228  3 H  pz         
     9      0.736021  1 O  pz         


 center of mass
 --------------
 x =  -0.07599894 y =  -0.05140639 z =   0.00000000

 moments of inertia (a.u.)
 ------------------
           3.670066812416           1.241554481566           0.000000000000
           1.241554481566           2.833002082974           0.000000000000
           0.000000000000           0.000000000000           6.503068895390

  Mulliken analysis of the total density
  --------------------------------------

    Atom       Charge   Shell Charges
 -----------   ------   -------------------------------------------------------
    1 O    8     8.31   2.00  0.83  0.83  2.83  1.81  0.01
    2 H    1     0.85   0.69  0.08  0.08
    3 H    1     0.84   0.68  0.08  0.08

       Multipole analysis of the density wrt the origin
       ------------------------------------------------

     L   x y z        total         open         nuclear
     -   - - -        -----         ----         -------
     0   0 0 0     -0.000000      0.000000     10.000000

     1   1 0 0      0.607326      0.000000     -0.000000
     1   0 1 0      0.415341      0.000000      0.000000
     1   0 0 1      0.000000      0.000000      0.000000

     2   2 0 0     -3.985531      0.000000      2.679864
     2   1 1 0     -0.754952      0.000000     -1.320621
     2   1 0 1     -0.000000      0.000000      0.000000
     2   0 2 0     -3.447711      0.000000      3.581570
     2   0 1 1     -0.000000      0.000000      0.000000
     2   0 0 2     -5.263940      0.000000      0.000000


 Parallel integral file used       1 records with       0 large values

                   NWChem Extensible Many-Electron Theory Module
                   ---------------------------------------------

              ======================================================
                   This portion of the program was automatically
                  generated by a Tensor Contraction Engine (TCE).
                  The development of this portion of the program
                 and TCE was supported by US Department of Energy,
                Office of Science, Office of Basic Energy Science.
                      TCE is a product of Battelle and PNNL.
              Please cite: S.Hirata, J.Phys.Chem.A 107, 9887 (2003).
              ======================================================

                                        H2O


            General Information
            -------------------
      Number of processors :     1
         Wavefunction type : Restricted Hartree-Fock
          No. of electrons :    10
           Alpha electrons :     5
            Beta electrons :     5
           No. of orbitals :    48
            Alpha orbitals :    24
             Beta orbitals :    24
        Alpha frozen cores :     0
         Beta frozen cores :     0
     Alpha frozen virtuals :     0
      Beta frozen virtuals :     0
         Spin multiplicity : singlet 
    Number of AO functions :    24
       Number of AO shells :    12
        Use of symmetry is : off
      Symmetry adaption is : off
         Schwarz screening : 0.10D-09

          Correlation Information
          -----------------------
          Calculation type : Coupled-cluster singles & doubles                           
   Perturbative correction : none                                                        
            Max iterations :      300
        Residual threshold : 0.10D-06
     T(0) DIIS level shift : 0.00D+00
     L(0) DIIS level shift : 0.00D+00
     T(1) DIIS level shift : 0.00D+00
     L(1) DIIS level shift : 0.00D+00
     T(R) DIIS level shift : 0.00D+00
     T(I) DIIS level shift : 0.00D+00
   CC-T/L Amplitude update :  5-th order DIIS
                I/O scheme : Global Array Library
        L-threshold :  0.10D-06
        EOM-threshold :  0.10D-06
 no EOMCCSD initial starts read in
 TCE RESTART OPTIONS
 READ_INT:   F
 WRITE_INT:  F
 READ_TA:    F
 WRITE_TA:   F
 READ_XA:    F
 WRITE_XA:   F
 READ_IN3:   F
 WRITE_IN3:  F
 SLICE:      F
 D4D5:       F
 quantumc:   F
 qrotation:  F
 pwtce:      F
 qducc:      T
 nacto:                         0
 nrotv:                         0
 nrot:                          0

            Memory Information
            ------------------
          Available GA space size is    1610612160 doubles
          Available MA space size is    1610610956 doubles

 Maximum block size        32 doubles

 tile_dim =     19

 Block   Spin    Irrep     Size     Offset   Alpha
 -------------------------------------------------
   1    alpha     a      5 doubles       0       1
   2    beta      a      5 doubles       5       1
   3    alpha     a     19 doubles      10       3
   4    beta      a     19 doubles      29       3

 Global array virtual files algorithm will be used

 Parallel file system coherency ......... OK

 #quartets = 3.081D+03 #integrals = 2.131D+04 #direct =  0.0% #cached =100.0%


 Integral file          = ./H2O.aoints.0
 Record size in doubles =  65536        No. of integs per rec  =  43688
 Max. records in memory =      4        Max. records in file   = 232314
 No. of bits per label  =      8        No. of bits per value  =     64


 Fock matrix recomputed
 1-e file size   =              576
 1-e file name   = ./H2O.f1
 Cpu & wall time / sec            0.0            0.0
 4-electron integrals stored in orbital form

 v2    file size   =           185666
 4-index algorithm nr.  13 is used
 imaxsize =       30
 imaxsize ichop =        0
 Cpu & wall time / sec            0.1            0.1
 T1-number-of-tasks                    1

 t1 file size   =               95
 t1 file name   = ./H2O.t1
 t1 file handle =       -998
 T2-number-of-boxes                    2

 t2 file size   =            18050
 t2 file name   = ./H2O.t2
 t2 file handle =       -996
CCSD iterations
 ---------------------------------------------------------
 Iter          Residuum       Correlation     Cpu    Wall 
 ---------------------------------------------------------
NEW TASK SCHEDULING
CCSD_T1_NTS --- OK
CCSD_T2_NTS --- OK
    1   0.9883839792747  -0.3682529624470     0.0     0.0
    2   1.8571557807403   0.0886759711884     0.0     0.0
    3   3.6608969664384  -0.7898118282353     0.0     0.0
    4   7.4798819491592   0.8966281316580     0.0     0.0
    5  12.6703264183945  -2.3578349756351     0.0     0.0
 MICROCYCLE DIIS UPDATE:                    5                    5
    6   0.0946404160549  -0.2000374254649     0.0     0.0
    7   0.1729565643248  -0.2335269219188     0.0     0.0
    8   0.3683692851327  -0.1561374785595     0.0     0.0
    9   0.7845661922707  -0.2552088288897     0.0     0.0
   10   1.5233573876663   0.2484206105626     0.0     0.0
 MICROCYCLE DIIS UPDATE:                   10                    5
   11   0.0090241016777  -0.2147317176783     0.0     0.0
   12   0.0135097345934  -0.2128955194537     0.0     0.0
   13   0.0300081747920  -0.2166416183201     0.0     0.0
   14   0.0693862795131  -0.2063658795835     0.0     0.0
   15   0.1614124104156  -0.2220755448403     0.0     0.0
 MICROCYCLE DIIS UPDATE:                   15                    5
   16   0.0007604771756  -0.2142126837346     0.0     0.0
   17   0.0006897094985  -0.2142653506544     0.0     0.0
   18   0.0012009670329  -0.2142095842729     0.0     0.0
   19   0.0026441951065  -0.2142598391895     0.0     0.0
   20   0.0058208458619  -0.2143059345829     0.0     0.0
 MICROCYCLE DIIS UPDATE:                   20                    5
   21   0.0001165314466  -0.2142563045300     0.0     0.0
   22   0.0000971406954  -0.2142427769727     0.0     0.0
   23   0.0001319795211  -0.2142650162667     0.0     0.0
   24   0.0002512417212  -0.2142190516246     0.0     0.0
   25   0.0005159908349  -0.2143141159620     0.0     0.0
 MICROCYCLE DIIS UPDATE:                   25                    5
   26   0.0000207189584  -0.2142491917551     0.0     0.0
   27   0.0000181838660  -0.2142496331748     0.0     0.0
   28   0.0000264954901  -0.2142494193905     0.0     0.0
   29   0.0000531426894  -0.2142498277253     0.0     0.0
   30   0.0001144179799  -0.2142506279545     0.0     0.0
 MICROCYCLE DIIS UPDATE:                   30                    5
   31   0.0000031677486  -0.2142500064728     0.0     0.0
   32   0.0000027028473  -0.2142496036365     0.0     0.0
   33   0.0000042423860  -0.2142502766401     0.0     0.0
   34   0.0000087151552  -0.2142488763173     0.0     0.0
   35   0.0000186980448  -0.2142517554447     0.0     0.0
 MICROCYCLE DIIS UPDATE:                   35                    5
   36   0.0000005967090  -0.2142497887934     0.0     0.0
   37   0.0000006729690  -0.2142498292580     0.0     0.0
   38   0.0000012712529  -0.2142497615220     0.0     0.0
   39   0.0000027834214  -0.2142499012877     0.0     0.0
   40   0.0000062419429  -0.2142496577286     0.0     0.0
 MICROCYCLE DIIS UPDATE:                   40                    5
   41   0.0000000953005  -0.2142498190419     0.0     0.0
 -----------------------------------------------------------------
 Iterations converged
 CCSD correlation energy / hartree =        -0.214249819041887
 CCSD total energy / hartree       =       -76.238227773120116

 Singles contributions

 Doubles contributions
     6a   (alpha)     7a   (alpha) ---     4a   (alpha)     5a   (alpha)        0.0200263202
     6a   (alpha)     7a   (alpha) ---     5a   (alpha)     4a   (alpha)       -0.0200263202
     6a   (alpha)     8a   (alpha) ---     3a   (alpha)     5a   (alpha)        0.0205645627
     6a   (alpha)     8a   (alpha) ---     5a   (alpha)     3a   (alpha)       -0.0205645627
     7a   (alpha)     6a   (alpha) ---     4a   (alpha)     5a   (alpha)       -0.0200263202
     7a   (alpha)     6a   (alpha) ---     5a   (alpha)     4a   (alpha)        0.0200263202
     7a   (alpha)     8a   (alpha) ---     3a   (alpha)     4a   (alpha)        0.0202336621
     7a   (alpha)     8a   (alpha) ---     4a   (alpha)     3a   (alpha)       -0.0202336621
     8a   (alpha)     6a   (alpha) ---     3a   (alpha)     5a   (alpha)       -0.0205645627
     8a   (alpha)     6a   (alpha) ---     5a   (alpha)     3a   (alpha)        0.0205645627
     8a   (alpha)     7a   (alpha) ---     3a   (alpha)     4a   (alpha)       -0.0202336621
     8a   (alpha)     7a   (alpha) ---     4a   (alpha)     3a   (alpha)        0.0202336621
     6a   (alpha)     6a   (beta ) ---     4a   (alpha)     4a   (beta )       -0.0266129028
     6a   (alpha)     6a   (beta ) ---     4a   (alpha)     5a   (beta )       -0.0283153887
     6a   (alpha)     6a   (beta ) ---     5a   (alpha)     4a   (beta )       -0.0283153887
     6a   (alpha)     6a   (beta ) ---     5a   (alpha)     5a   (beta )       -0.0655609153
     6a   (alpha)     7a   (beta ) ---     4a   (alpha)     4a   (beta )       -0.0270378022
     6a   (alpha)     7a   (beta ) ---     5a   (alpha)     5a   (beta )        0.0232091372
     6a   (alpha)     8a   (beta ) ---     5a   (alpha)     3a   (beta )       -0.0283398178
     7a   (alpha)     6a   (beta ) ---     4a   (alpha)     4a   (beta )       -0.0270378022
     7a   (alpha)     6a   (beta ) ---     5a   (alpha)     5a   (beta )        0.0232091372
     7a   (alpha)     7a   (beta ) ---     4a   (alpha)     4a   (beta )       -0.0584220568
     7a   (alpha)     7a   (beta ) ---     4a   (alpha)     5a   (beta )        0.0307565221
     7a   (alpha)     7a   (beta ) ---     5a   (alpha)     4a   (beta )        0.0307565221
     7a   (alpha)     7a   (beta ) ---     5a   (alpha)     5a   (beta )       -0.0269485608
     7a   (alpha)     8a   (beta ) ---     4a   (alpha)     3a   (beta )       -0.0280976904
     7a   (alpha)     8a   (beta ) ---     5a   (alpha)     3a   (beta )        0.0203293752
     8a   (alpha)     6a   (beta ) ---     3a   (alpha)     5a   (beta )       -0.0283398178
     8a   (alpha)     7a   (beta ) ---     3a   (alpha)     4a   (beta )       -0.0280976904
     8a   (alpha)     7a   (beta ) ---     3a   (alpha)     5a   (beta )        0.0203293752
     8a   (alpha)     8a   (beta ) ---     3a   (alpha)     3a   (beta )       -0.0511184221
 Ground state specification:
 exp(T)|Ref>~(1+T)|Ref>
 ------- a(p)+/a(q) strings ----------

 singles norm

 doubles norm

 Reference string
   1.0000000000000000      :(1a)+ (2a)+ (3a)+ (4a)+ (5a)+ (1b)+ (2b)+ (3b)+ (4b)+ (5b)+ |0>

 Singles strings

 Doubles strings
 -------------------------------------
 enrep_tce =    9.0778597194096822     
  EHF(total)         =       -76.02397795
  Shift (HFtot-HFA)  =         0.00000000
 ALL OCCUPIED ORBITALS ARE ACTIVE IN DUCC --> NO SHIFT
 Number of active orbitals                    8
 Number of active alpha electrons                    5
 Number of active beta electrons                    5
  nos                    10
  nvs                    38
 noas                     5
 nobs                     5
 nvas                    19
 nvbs                    19
 nactv                     3
 DUCC MODEL =                     6
 NONHF =  T
 F-T1 correlation    =   -2.9746232729560896E-005
 V-T1-T1 correlation =   -1.1759224198896164E-006
 V-T2 correlation    =  -0.21421889688669718     
 Total correlation   =  -0.21424981904184662     
 F-T1(Ext) correlation         =   -2.0627279808997489E-006
 V-T1(Ext)-T1(Ext) correlation =    1.4620218791630257E-006
 V-T2(Ext) correlation         =  -0.13001503239289333     
 Total Ext correlation         =  -0.13001563309899508     
1-BODY TIME =    1.258 SECONDS.
  HHHH TIME =    1.540 SECONDS.
  PPPP TIME =    0.026 SECONDS.
  HHHP TIME =    0.536 SECONDS.
  PPPH TIME =    0.077 SECONDS.
  HPHP TIME =    0.295 SECONDS.
  HHPP TIME =    0.269 SECONDS.
 ONE-BODY UNITARY CHECK
 TWO-BODY UNITARY CHECK
                    1                    1                    1                    2  -3.0051957627458137E-012
                    1                    1                    1                    4   9.9040143557850799E-012
                    1                    1                    1                    5   4.1733204725361384E-012
                    1                    1                    2                    1   3.0052030021762382E-012
                    1                    1                    2                    4  -4.8235876013342207E-011
                    1                    1                    2                    5  -2.0827199639550629E-011
                    1                    1                    4                    1  -9.9040146204744878E-012
                    1                    1                    4                    2   4.8235875991050620E-011
                    1                    1                    5                    1  -4.1733209638864952E-012
                    1                    1                    5                    2   2.0827199646038776E-011
                    1                    2                    1                    1   3.0051957627458137E-012
                    1                    2                    1                    4  -4.7979055624314260E-011
                    1                    2                    1                    5  -2.0178789195135494E-011
                    1                    2                    2                    1  -4.3295367291307230E-011
                    1                    2                    2                    2   7.4744342549077467E-011
                    1                    2                    2                    4   3.7644217257271073E-010
                    1                    2                    2                    5   1.5980194337933407E-010
                    1                    2                    3                    3  -1.0976219685062045E-011
                    1                    2                    4                    1   4.8317118535312620E-011
                    1                    2                    4                    2  -3.2475272471188532E-010
                    1                    2                    4                    4  -2.1497531652890032E-011
                    1                    2                    4                    5  -1.4330166565742163E-011
                    1                    2                    5                    1   2.0931352571335049E-011
                    1                    2                    5                    2  -1.4148978776801213E-010
                    1                    2                    5                    4  -2.0935754554975118E-011
                    1                    2                    5                    5   1.2474632576708405E-011
                    1                    3                    2                    3  -2.1212730183517436E-010
                    1                    3                    3                    1   1.3146728150559284E-010
                    1                    3                    3                    2  -9.1627156556528533E-010
                    1                    3                    3                    4   7.0641075627930761E-010
                    1                    3                    3                    5   3.0047046534892319E-010
                    1                    3                    4                    3  -3.5478803922517343E-010
                    1                    3                    5                    3  -1.5120450811562103E-010
                    1                    4                    1                    1  -9.9040143557850799E-012
                    1                    4                    1                    2   4.7979055624314260E-011
                    1                    4                    2                    1   1.1105214317574941E-010
                    1                    4                    2                    2  -4.9779382940008891E-010
                    1                    4                    2                    4  -7.8543374928963239E-011
                    1                    4                    2                    5   1.6957780496387308E-011
                    1                    4                    3                    3   1.1917906379498347E-011
                    1                    4                    4                    1   1.9623191960249642E-012
                    1                    4                    4                    2  -5.7047512113522769E-011
                    1                    4                    4                    4   6.1538712341946831E-011
                    1                    4                    4                    5   2.4668495588256456E-010
                    1                    4                    5                    1  -2.7450264283856995E-011
                    1                    4                    5                    2   2.0083759153899199E-010
                    1                    4                    5                    4  -1.9396156425779965E-010
                    1                    4                    5                    5  -5.8465088674993456E-011
                    1                    5                    1                    1  -4.1733204725361384E-012
                    1                    5                    1                    2   2.0178789195135494E-011
                    1                    5                    2                    1   4.7829088779816065E-011
                    1                    5                    2                    2  -2.1684667749572595E-010
                    1                    5                    2                    4   1.0792541285577911E-011
                    1                    5                    2                    5  -1.0211778753328737E-010
                    1                    5                    3                    3   5.0479682249048279E-012
                    1                    5                    4                    1  -2.8193666151699048E-011
                    1                    5                    4                    2   2.0142539726268355E-010
                    1                    5                    4                    4  -2.2980398769408578E-011
                    1                    5                    4                    5  -4.4941952156291043E-010
                    1                    5                    5                    1   4.8951176445655165E-011
                    1                    5                    5                    2  -3.9290414173033528E-010
                    1                    5                    5                    4   5.5253996170123720E-010
                    1                    5                    5                    5   2.1284713791068779E-011
                    1                    6                    1                    7  -2.3096857759696832E-011
                    1                    6                    1                    9   1.1837336666431497E-011
                    1                    6                    1                   10   4.6463388692075114E-012
                    1                    6                    2                    6  -2.9387547950676662E-011
                    1                    6                    2                    7   9.0673003827479448E-011
                    1                    6                    2                    9  -1.1843328065214848E-010
                    1                    6                    2                   10  -4.3698965236302345E-011
                    1                    6                    3                    8  -1.0152201648794268E-010
                    1                    6                    4                    7   4.9249110323744405E-011
                    1                    6                    4                    9  -1.0586868187667520E-011
                    1                    6                    4                   10   2.1596939514534341E-011
                    1                    6                    5                    7   2.0201767233878065E-011
                    1                    6                    5                    9   2.6640197860194892E-011
                    1                    6                    5                   10  -5.7595268831978075E-011
                    1                    6                    6                    2   2.0091622809914611E-011
                    1                    6                    6                    4  -1.9332868639310163E-012
                    1                    6                    7                    1   3.2392782900458883E-011
                    1                    6                    7                    2  -9.0673003827479448E-011
                    1                    6                    7                    4   7.0197404963487364E-011
                    1                    6                    7                    5   2.2871765354044726E-011
                    1                    6                    8                    3   1.0152201648794268E-010
                    1                    6                    9                    1  -9.0186746959375341E-012
                    1                    6                    9                    2  -1.0132344182428588E-012
                    1                    6                    9                    4   1.0586868187667520E-011
                    1                    6                    9                    5  -2.1973489867932461E-011
                    1                    6                   10                    1  -3.8918035460966394E-012
                    1                    6                   10                    4  -2.6263647940477641E-011
                    1                    6                   10                    5   5.7595268831978075E-011
                    1                    7                    1                    6   2.3096857759696832E-011
                    1                    7                    1                    9  -3.2415803548346833E-011
                    1                    7                    1                   10  -1.3855199106072025E-011
                    1                    7                    2                    6  -7.5653025510824534E-012
                    1                    7                    2                    7   5.3271838676427485E-010
                    1                    7                    2                    9   1.3479091584209235E-010
                    1                    7                    2                   10   6.6767066701778344E-011
                    1                    7                    3                    8   5.5586092673198806E-010
                    1                    7                    4                    6   5.9120716026754561E-011
                    1                    7                    4                    7  -8.6277377603360961E-010
                    1                    7                    4                    9   2.1012396163311298E-010
                    1                    7                    4                   10  -5.7773760601953494E-011
                    1                    7                    5                    6   2.4640421159623921E-011
                    1                    7                    5                    7  -3.5694122137164275E-010
                    1                    7                    5                    9  -6.6271979657500646E-011
                    1                    7                    5                   10   3.3469457587365081E-010
                    1                    7                    6                    1  -2.0091636687702419E-011
                    1                    7                    6                    4  -1.5563239607642443E-011
                    1                    7                    6                    5  -6.3235685676503450E-012
                    1                    7                    7                    1  -3.5731861913745888E-011
                    1                    7                    7                    2  -4.5797404410463649E-010
                    1                    7                    7                    4   2.4165129619557746E-010
                    1                    7                    7                    5   9.3034879279640936E-011
                    1                    7                    8                    3  -5.6683714666494467E-010
                    1                    7                    9                    1  -1.0803607140841276E-011
                    1                    7                    9                    2   5.3802102963768084E-010
                    1                    7                    9                    4  -2.3162149455357994E-010
                    1                    7                    9                    5   4.3443604074398789E-011
                    1                    7                   10                    1  -3.7090833876485263E-012
                    1                    7                   10                    2   2.1545143035102410E-010
                    1                    7                   10                    4   4.5336216009626840E-011
                    1                    7                   10                    5  -3.2221993649661496E-010
                    1                    8                    2                    8   2.2560409790317593E-010
                    1                    8                    3                    6  -3.3473855631793725E-011
                    1                    8                    3                    7   7.6876485385901638E-010
                    1                    8                    3                    9  -1.8930535351097122E-010
                    1                    8                    3                   10  -8.0198592124908208E-011
                    1                    8                    4                    8  -4.9238755087110953E-010
                    1                    8                    5                    8  -2.0934808465759847E-010
                    1                    8                    7                    3  -4.3773127136881307E-010
                    1                    8                    8                    1   1.6494072774264623E-010
                    1                    8                    8                    2  -1.6850365408549450E-009
                    1                    8                    8                    4   8.9571605427912759E-010
                    1                    8                    8                    5   3.8066903318770273E-010
                    1                    8                    9                    3   1.3759955848346994E-010
                    1                    8                   10                    3   5.8143601478627405E-011
                    1                    9                    1                    6  -1.1837336666431497E-011
                    1                    9                    1                    7   3.2415803548346833E-011
                    1                    9                    2                    6   3.9365452087283814E-011
                    1                    9                    2                    7  -4.4798286391242725E-010
                    1                    9                    2                    9  -2.6450923049092800E-011
                    1                    9                    2                   10  -3.3419068510773253E-011
                    1                    9                    3                    8  -5.8380925441192666E-010
                    1                    9                    4                    6  -2.6014031206944566E-011
                    1                    9                    4                    7   3.2289185561418243E-010
                    1                    9                    4                    9  -1.4075226175552791E-009
                    1                    9                    4                   10   1.9333887572511865E-010
                    1                    9                    5                    6  -1.1515322549671136E-011
                    1                    9                    5                    7   6.8780703138190957E-011
                    1                    9                    5                    9  -1.8117393653024894E-011
                    1                    9                    5                   10  -7.9150938234184842E-010
                    1                    9                    6                    1   1.9332868639310163E-012
                    1                    9                    6                    2   1.5563239065541357E-011
                    1                    9                    7                    1   7.1686703448370359E-011
                    1                    9                    7                    2  -4.9810966115670929E-011
                    1                    9                    7                    4  -5.2092422389571347E-011
                    1                    9                    7                    5   5.0376850477609758E-011
[...]
    8    2    3    1        0.0184709061
    8    2    3    2        0.0499156539
    8    2    3    3       -0.0000000685
    8    2    3    4        0.0092786604
    8    2    3    5        0.0039913476
    8    2    3    6        0.0151234573
    8    2    3    7        0.0091254446
    8    2    3    8       -0.0000000545
    8    3    3    1       -0.0000000233
    8    3    3    2       -0.0000001055
    8    3    3    3        0.1963325463
    8    3    3    4       -0.0000000368
    8    3    3    5       -0.0000000147
    8    3    3    6       -0.0000000432
    8    3    3    7       -0.0000000259
    8    3    3    8        0.1527577292
    8    4    3    1        0.0046531702
    8    4    3    2        0.0044119332
    8    4    3    3        0.0000000222
    8    4    3    4        0.0072747797
    8    4    3    5        0.0010856923
    8    4    3    6        0.0122890423
    8    4    3    7        0.0145213170
    8    4    3    8        0.0000000138
    8    5    3    1        0.0019978575
    8    5    3    2        0.0018540032
    8    5    3    3        0.0000000108
    8    5    3    4        0.0010721234
    8    5    3    5        0.0050622942
    8    5    3    6        0.0137753291
    8    5    3    7       -0.0078758410
    8    5    3    8        0.0000000060
    8    6    3    1        0.0084558227
    8    6    3    2        0.0323419366
    8    6    3    3       -0.0000000276
    8    6    3    4        0.0235909437
    8    6    3    5        0.0231851210
    8    6    3    6        0.0199549080
    8    6    3    7        0.0024914963
    8    6    3    8        0.0000000049
    8    7    3    1        0.0051339640
    8    7    3    2        0.0195883061
    8    7    3    3       -0.0000000127
    8    7    3    4        0.0252009216
    8    7    3    5       -0.0108760219
    8    7    3    6        0.0025129683
    8    7    3    7        0.0172113090
    8    7    3    8        0.0000000052
    8    8    3    1       -0.0000000188
    8    8    3    2       -0.0000001706
    8    8    3    3        0.6586190742
    8    8    3    4       -0.0000000572
    8    8    3    5       -0.0000000236
    8    8    3    6       -0.0000000346
    8    8    3    7       -0.0000000204
    8    8    3    8        0.1661376468
    8    1    4    1       -0.0000000010
    8    1    4    2        0.0000000217
    8    1    4    3        0.0100892914
    8    1    4    4        0.0000000224
    8    1    4    5        0.0000000030
    8    1    4    6        0.0000000103
    8    1    4    7        0.0000000067
    8    1    4    8        0.0054902717
    8    2    4    1        0.0000000095
    8    2    4    2        0.0000000243
    8    2    4    3        0.0084686482
    8    2    4    4        0.0000000259
    8    2    4    5        0.0000000015
    8    2    4    6        0.0000000210
    8    2    4    7        0.0000000204
    8    2    4    8        0.0061659834
    8    3    4    1       -0.0040929616
    8    3    4    2       -0.0011859062
    8    3    4    3       -0.0000000342
    8    3    4    4        0.1412654321
    8    3    4    5        0.0036864254
    8    3    4    6        0.0668739713
    8    3    4    7        0.0931921807
    8    3    4    8        0.0000000138
    8    4    4    1       -0.0000000041
    8    4    4    2        0.0000000030
    8    4    4    3        0.0066133061
    8    4    4    4        0.0000000376
    8    4    4    5        0.0000000037
    8    4    4    6        0.0000000210
    8    4    4    7        0.0000000319
    8    4    4    8        0.0178377953
    8    5    4    1        0.0000000003
    8    5    4    2        0.0000000010
    8    5    4    3        0.0010419610
    8    5    4    4        0.0000000168
    8    5    4    5        0.0000000031
    8    5    4    6        0.0000000109
    8    5    4    7        0.0000000063
    8    5    4    8        0.0010849651
    8    6    4    1       -0.0000000039
    8    6    4    2        0.0000000185
    8    6    4    3        0.0235089884
    8    6    4    4        0.0000000593
    8    6    4    5        0.0000000060
    8    6    4    6        0.0000000078
    8    6    4    7        0.0000000158
    8    6    4    8        0.0046736366
    8    7    4    1       -0.0000000073
    8    7    4    2        0.0000000097
    8    7    4    3        0.0248384496
    8    7    4    4        0.0000000506
    8    7    4    5       -0.0000000051
    8    7    4    6        0.0000000092
    8    7    4    7       -0.0000000130
    8    7    4    8        0.0055051962
    8    8    4    1       -0.0063697719
    8    8    4    2        0.0064914167
    8    8    4    3       -0.0000000572
    8    8    4    4        0.5708892009
    8    8    4    5        0.0062669057
    8    8    4    6        0.0854224834
    8    8    4    7        0.1199793362
    8    8    4    8        0.0000000290
    8    1    5    1       -0.0000000005
    8    1    5    2        0.0000000092
    8    1    5    3        0.0043289713
    8    1    5    4        0.0000000030
    8    1    5    5        0.0000000155
    8    1    5    6        0.0000000051
    8    1    5    7        0.0000000022
    8    1    5    8        0.0023523003
    8    2    5    1        0.0000000041
    8    2    5    2        0.0000000102
    8    2    5    3        0.0036446548
    8    2    5    4        0.0000000015
    8    2    5    5        0.0000000225
    8    2    5    6        0.0000000181
    8    2    5    7       -0.0000000061
    8    2    5    8        0.0026739960
    8    3    5    1       -0.0017325258
    8    3    5    2       -0.0004440103
    8    3    5    3       -0.0000000136
    8    3    5    4        0.0036892511
    8    3    5    5        0.1327603083
    8    3    5    6        0.0928127418
    8    3    5    7       -0.0656374612
    8    3    5    8        0.0000000060
    8    4    5    1        0.0000000003
    8    4    5    2        0.0000000011
    8    4    5    3        0.0010554497
    8    4    5    4        0.0000000036
    8    4    5    5        0.0000000316
    8    4    5    6        0.0000000252
    8    4    5    7       -0.0000000181
    8    4    5    8        0.0010849651
    8    5    5    1       -0.0000000047
    8    5    5    2        0.0000000026
    8    5    5    3        0.0044693554
    8    5    5    4        0.0000000032
    8    5    5    5        0.0000000168
    8    5    5    6        0.0000000145
    8    5    5    7       -0.0000000081
    8    5    5    8        0.0157849808
    8    6    5    1       -0.0000000075
    8    6    5    2        0.0000000044
    8    6    5    3        0.0227596246
    8    6    5    4        0.0000000059
    8    6    5    5        0.0000000581
    8    6    5    6       -0.0000000032
    8    6    5    7        0.0000000008
    8    6    5    8        0.0052487959
    8    7    5    1        0.0000000067
    8    7    5    2        0.0000000083
    8    7    5    3       -0.0103985637
    8    7    5    4       -0.0000000050
    8    7    5    5        0.0000000306
    8    7    5    6        0.0000000207
    8    7    5    7        0.0000000019
    8    7    5    8       -0.0030159789
    8    8    5    1       -0.0027061779
    8    8    5    2        0.0027763070
    8    8    5    3       -0.0000000236
    8    8    5    4        0.0062669057
    8    8    5    5        0.5561083395
    8    8    5    6        0.1205738502
    8    8    5    7       -0.0859292515
    8    8    5    8        0.0000000133
    8    1    6    1       -0.0000000012
    8    1    6    2        0.0000000227
    8    1    6    3        0.0107838416
    8    1    6    4        0.0000000094
    8    1    6    5        0.0000000041
    8    1    6    6        0.0000000253
    8    1    6    7        0.0000000080
    8    1    6    8        0.0123005078
    8    2    6    1        0.0000000129
    8    2    6    2        0.0000000483
    8    2    6    3        0.0154592423
    8    2    6    4        0.0000000231
    8    2    6    5        0.0000000206
    8    2    6    6        0.0000000193
    8    2    6    7        0.0000000112
    8    2    6    8        0.0108230119
    8    3    6    1       -0.0060856355
    8    3    6    2        0.0135262765
    8    3    6    3       -0.0000000313
    8    3    6    4        0.0646403507
    8    3    6    5        0.0899914477
    8    3    6    6        0.1624832890
    8    3    6    7       -0.0045895636
    8    3    6    8        0.0000000049
    8    4    6    1       -0.0000000028
    8    4    6    2        0.0000000114
    8    4    6    3        0.0119439647
    8    4    6    4        0.0000000200
    8    4    6    5        0.0000000248
    8    4    6    6        0.0000000372
    8    4    6    7        0.0000000023
    8    4    6    8        0.0046736366
    8    5    6    1       -0.0000000054
    8    5    6    2        0.0000000056
    8    5    6    3        0.0133623119
    8    5    6    4        0.0000000113
    8    5    6    5        0.0000000142
    8    5    6    6        0.0000000123
    8    5    6    7        0.0000000047
    8    5    6    8        0.0052487959
    8    6    6    1       -0.0000000105
    8    6    6    2        0.0000000012
    8    6    6    3        0.0205093834
    8    6    6    4        0.0000000091
    8    6    6    5       -0.0000000010
    8    6    6    6        0.0000000686
    8    6    6    7       -0.0000000022
    8    6    6    8        0.0335039251
    8    7    6    1        0.0000000030
    8    7    6    2        0.0000000180
    8    7    6    3        0.0026642476
    8    7    6    4        0.0000000099
    8    7    6    5        0.0000000209
    8    7    6    6        0.0000000323
    8    7    6    7        0.0000000065
    8    7    6    8        0.0060477840
    8    8    6    1       -0.0084642334
    8    8    6    2        0.0122067678
    8    8    6    3       -0.0000000346
    8    8    6    4        0.0854224834
    8    8    6    5        0.1205738502
    8    8    6    6        0.5773313512
    8    8    6    7       -0.0042257544
    8    8    6    8       -0.0000000049
    8    1    7    1       -0.0000000001
    8    1    7    2        0.0000000141
    8    1    7    3        0.0065302001
    8    1    7    4        0.0000000057
    8    1    7    5        0.0000000026
    8    1    7    6        0.0000000080
    8    1    7    7        0.0000000177
    8    1    7    8        0.0074620470
    8    2    7    1        0.0000000081
    8    2    7    2        0.0000000305
    8    2    7    3        0.0093390487
    8    2    7    4        0.0000000226
    8    2    7    5       -0.0000000075
    8    2    7    6        0.0000000111
    8    2    7    7        0.0000000072
    8    2    7    8        0.0065334644
    8    3    7    1       -0.0036877383
    8    3    7    2        0.0080518882
    8    3    7    3       -0.0000000184
    8    3    7    4        0.0903287376
    8    3    7    5       -0.0638192914
    8    3    7    6       -0.0045969615
    8    3    7    7        0.1679607605
    8    3    7    8        0.0000000052
    8    4    7    1       -0.0000000052
    8    4    7    2        0.0000000072
    8    4    7    3        0.0141412981
    8    4    7    4        0.0000000319
    8    4    7    5       -0.0000000181
    8    4    7    6        0.0000000025
    8    4    7    7        0.0000000265
    8    4    7    8        0.0055051962
    8    5    7    1        0.0000000049
    8    5    7    2        0.0000000023
    8    5    7    3       -0.0076436747
    8    5    7    4        0.0000000053
    8    5    7    5       -0.0000000086
    8    5    7    6        0.0000000044
    8    5    7    7        0.0000000189
    8    5    7    8       -0.0030159789
    8    6    7    1        0.0000000033
    8    6    7    2        0.0000000181
    8    6    7    3        0.0026386148
    8    6    7    4        0.0000000170
    8    6    7    5       -0.0000000001
    8    6    7    6       -0.0000000021
    8    6    7    7        0.0000000587
    8    6    7    8        0.0060477840
    8    7    7    1       -0.0000000138
    8    7    7    2       -0.0000000180
    8    7    7    3        0.0176021611
    8    7    7    4       -0.0000000112
    8    7    7    5        0.0000000011
    8    7    7    6        0.0000000064
    8    7    7    7        0.0000000559
    8    7    7    8        0.0274853349
    8    8    7    1       -0.0051135512
    8    8    7    2        0.0071884902
    8    8    7    3       -0.0000000204
    8    8    7    4        0.1199793362
    8    8    7    5       -0.0859292515
    8    8    7    6       -0.0042257544
    8    8    7    7        0.5836125303
    8    8    7    8        0.0000000009
    8    1    8    1        0.0443203347
    8    1    8    2        0.0238862525
    8    1    8    3       -0.0000000365
    8    1    8    4        0.0053217054
    8    1    8    5        0.0022810576
    8    1    8    6        0.0122624077
    8    1    8    7        0.0074389326
    8    1    8    8       -0.0000000397
    8    2    8    1        0.0238862525
    8    2    8    2        0.0498737980
    8    2    8    3       -0.0000000405
    8    2    8    4        0.0069772800
    8    2    8    5        0.0030308163
    8    2    8    6        0.0113909548
    8    2    8    7        0.0068768415
    8    2    8    8       -0.0000000450
    8    3    8    1       -0.0000000365
    8    3    8    2       -0.0000000405
    8    3    8    3        0.1522679224
    8    3    8    4        0.0000000156
    8    3    8    5        0.0000000070
    8    3    8    6        0.0000000069
    8    3    8    7        0.0000000065
    8    3    8    8        0.1661376468
    8    4    8    1        0.0053217054
    8    4    8    2        0.0069772800
    8    4    8    3        0.0000000156
    8    4    8    4        0.0172128197
    8    4    8    5        0.0011389566
    8    4    8    6        0.0045062596
    8    4    8    7        0.0053469881
    8    4    8    8        0.0000000290
    8    5    8    1        0.0022810576
    8    5    8    2        0.0030308163
    8    5    8    3        0.0000000070
    8    5    8    4        0.0011389566
    8    5    8    5        0.0151702205
    8    5    8    6        0.0050972634
    8    5    8    7       -0.0029601069
    8    5    8    8        0.0000000133
    8    6    8    1        0.0122624077
    8    6    8    2        0.0113909548
    8    6    8    3        0.0000000069
    8    6    8    4        0.0045062596
    8    6    8    5        0.0050972634
    8    6    8    6        0.0334924519
    8    6    8    7        0.0060291071
    8    6    8    8       -0.0000000049
    8    7    8    1        0.0074389326
    8    7    8    2        0.0068768415
    8    7    8    3        0.0000000065
    8    7    8    4        0.0053469881
    8    7    8    5       -0.0029601069
    8    7    8    6        0.0060291071
    8    7    8    7        0.0274936227
    8    7    8    8        0.0000000009
    8    8    8    1       -0.0000000397
    8    8    8    2       -0.0000000450
    8    8    8    3        0.1661376468
    8    8    8    4        0.0000000290
    8    8    8    5        0.0000000133
    8    8    8    6       -0.0000000049
    8    8    8    7        0.0000000009
    8    8    8    8        0.6094485398
 end_two_electron_integrals

 Parallel integral file used       1 records with       0 large values


 Task  times  cpu:        4.7s     wall:        4.8s


                                NWChem Input Module
                                -------------------


 Summary of allocated global arrays
-----------------------------------
  No active global arrays


MA_summarize_allocated_blocks: starting scan ...
MA_summarize_allocated_blocks: scan completed: 0 heap blocks, 0 stack blocks
MA usage statistics:

	allocation statistics:
					      heap	     stack
					      ----	     -----
	current number of blocks	         0	         0
	maximum number of blocks	        18	        42
	current total bytes		         0	         0
	maximum total bytes		   2175760	 141357496
	maximum total K-bytes		      2176	    141358
	maximum total M-bytes		         3	       142


                                     CITATION
                                     --------
                Please cite the following reference when publishing
                           results obtained with NWChem:

          E. Apra, E. J. Bylaska, W. A. de Jong, N. Govind, K. Kowalski,
       T. P. Straatsma, M. Valiev, H. J. J. van Dam, Y. Alexeev, J. Anchell,
       V. Anisimov, F. W. Aquino, R. Atta-Fynn, J. Autschbach, N. P. Bauman,
     J. C. Becca, D. E. Bernholdt, K. Bhaskaran-Nair, S. Bogatko, P. Borowski,
         J. Boschen, J. Brabec, A. Bruner, E. Cauet, Y. Chen, G. N. Chuev,
      C. J. Cramer, J. Daily, M. J. O. Deegan, T. H. Dunning Jr., M. Dupuis,
   K. G. Dyall, G. I. Fann, S. A. Fischer, A. Fonari, H. Fruchtl, L. Gagliardi,
      J. Garza, N. Gawande, S. Ghosh, K. Glaesemann, A. W. Gotz, J. Hammond,
       V. Helms, E. D. Hermes, K. Hirao, S. Hirata, M. Jacquelin, L. Jensen,
   B. G. Johnson, H. Jonsson, R. A. Kendall, M. Klemm, R. Kobayashi, V. Konkov,
      S. Krishnamoorthy, M. Krishnan, Z. Lin, R. D. Lins, R. J. Littlefield,
      A. J. Logsdail, K. Lopata, W. Ma, A. V. Marenich, J. Martin del Campo,
   D. Mejia-Rodriguez, J. E. Moore, J. M. Mullin, T. Nakajima, D. R. Nascimento,
    J. A. Nichols, P. J. Nichols, J. Nieplocha, A. Otero-de-la-Roza, B. Palmer,
    A. Panyala, T. Pirojsirikul, B. Peng, R. Peverati, J. Pittner, L. Pollack,
   R. M. Richard, P. Sadayappan, G. C. Schatz, W. A. Shelton, D. W. Silverstein,
   D. M. A. Smith, T. A. Soares, D. Song, M. Swart, H. L. Taylor, G. S. Thomas,
            V. Tipparaju, D. G. Truhlar, K. Tsemekhman, T. Van Voorhis,
      A. Vazquez-Mayagoitia, P. Verma, O. Villa, A. Vishnu, K. D. Vogiatzis,
        D. Wang, J. H. Weare, M. J. Williamson, T. L. Windus, K. Wolinski,
        A. T. Wong, Q. Wu, C. Yang, Q. Yu, M. Zacharias, Z. Zhang, Y. Zhao,
                                and R. J. Harrison
                        "NWChem: Past, present, and future
                         J. Chem. Phys. 152, 184102 (2020)
                               doi:10.1063/5.0004997

                                      AUTHORS
                                      -------
  E. Apra, E. J. Bylaska, N. Govind, K. Kowalski, M. Valiev, D. Mejia-Rodriguez,
       A. Kunitsa, N. P. Bauman, A. Panyala, W. A. de Jong, T. P. Straatsma,
        H. J. J. van Dam, D. Wang, T. L. Windus, J. Hammond, J. Autschbach,
    K. Bhaskaran-Nair, J. Brabec, K. Lopata, S. A. Fischer, S. Krishnamoorthy,
     M. Jacquelin, W. Ma, M. Klemm, O. Villa, Y. Chen, V. Anisimov, F. Aquino,
    S. Hirata, M. T. Hackler, Eric Hermes, L. Jensen, J. E. Moore, J. C. Becca,
      V. Konjkov, T. Risthaus, M. Malagoli, A. Marenich, A. Otero-de-la-Roza,
        J. Mullin, P. Nichols, R. Peverati, J. Pittner, Y. Zhao, P.-D. Fan,
        A. Fonari, M. J. Williamson, R. J. Harrison, J. R. Rehr, M. Dupuis,
     D. Silverstein, D. M. A. Smith, J. Nieplocha, V. Tipparaju, M. Krishnan,
     B. E. Van Kuiken, A. Vazquez-Mayagoitia, M. Swart, Q. Wu, T. Van Voorhis,
     A. A. Auer, M. Nooijen, L. D. Crosby, E. Brown, G. Cisneros, G. I. Fann,
   H. Fruchtl, J. Garza, K. Hirao, R. A. Kendall, J. A. Nichols, K. Tsemekhman,
    K. Wolinski, J. Anchell, D. E. Bernholdt, P. Borowski, T. Clark, D. Clerc,
   H. Dachsel, M. J. O. Deegan, K. Dyall, D. Elwood, E. Glendening, M. Gutowski,
   A. C. Hess, J. Jaffe, B. G. Johnson, J. Ju, R. Kobayashi, R. Kutteh, Z. Lin,
   R. Littlefield, X. Long, B. Meng, T. Nakajima, S. Niu, L. Pollack, M. Rosing,
   K. Glaesemann, G. Sandrone, M. Stave, H. Taylor, G. Thomas, J. H. van Lenthe,
                               A. T. Wong, Z. Zhang.

 Total times  cpu:        7.1s     wall:        9.6s
