 argument  1 = input.nw
  NWChem w/ OpenMP: maximum threads =    1



============================== echo of input deck ==============================
 echo
 start H2O
 title "H2O"

 memory total 24 gb

 geometry units bohr
 symmetry c1
        O  0.00000000  0.00000000  0.00000000
        H  0.00000000  1.8987535  0.00000000
        H  1.72558000 -0.64860000  0.00000000
 end

 basis spherical
   * library cc-pVDZ
 end

 mcscf
   active  8
   actelec 10
   multiplicity 1
   maxiter 40
   vectors input h2o.mos
   vectors output h2o.mos
 end

 task mcscf

 scf
   vectors input h2o.mos
   vectors output h2o-trash.mos
   noscf
 end

 tce
   2eorb
   2emet 13
   ccsd
   maxiter 300
 end

# set tce:print_integrals T
# set tce:qorb 8
# set tce:qela 5
# set tce:qelb 5

 set tce:qducc T
 set tce:nactv 3
 set tce:nonhf T
 set tce:ducc_model 6

 set tce:printtol 0.02

 task tce
================================================================================


                                         
                                         


             Northwest Computational Chemistry Package (NWChem) 7.0.1
             --------------------------------------------------------


                    Environmental Molecular Sciences Laboratory
                       Pacific Northwest National Laboratory
                                Richland, WA 99352

                              Copyright (c) 1994-2020
                       Pacific Northwest National Laboratory
                            Battelle Memorial Institute

             NWChem is an open-source computational chemistry package
                        distributed under the terms of the
                      Educational Community License (ECL) 2.0
             A copy of the license is included with this distribution
                              in the LICENSE.TXT file

                                  ACKNOWLEDGMENT
                                  --------------

            This software and its documentation were developed at the
            EMSL at Pacific Northwest National Laboratory, a multiprogram
            national laboratory, operated for the U.S. Department of Energy
            by Battelle under Contract Number DE-AC05-76RL01830. Support
            for this work was provided by the Department of Energy Office
            of Biological and Environmental Research, Office of Basic
            Energy Sciences, and the Office of Advanced Scientific Computing.


           Job information
           ---------------

    hostname        = WE46210
    program         = /home/baum612/code/nwchem/bin/LINUX64/nwchem
    date            = Wed Sep  4 02:18:37 2024

    compiled        = Wed_Sep_04_02:00:17_2024
    source          = /home/baum612/code/nwchem
    nwchem branch   = 7.0.0
    nwchem revision = nwchem_on_git-4191-g39d87d64de
    ga revision     = 5.8.1
    use scalapack   = F
    input           = input.nw
    prefix          = H2O.
    data base       = ./H2O.db
    status          = startup
    nproc           =        1
    time left       =     -1s



           Memory information
           ------------------

    heap     =  805306366 doubles =   6144.0 Mbytes
    stack    =  805306363 doubles =   6144.0 Mbytes
    global   = 1610612736 doubles =  12288.0 Mbytes (distinct from heap & stack)
    total    = 3221225465 doubles =  24576.0 Mbytes
    verify   = yes
    hardfail = no 


           Directory information
           ---------------------

  0 permanent = .
  0 scratch   = .




                                NWChem Input Module
                                -------------------


                                        H2O
                                        ---
 Turning off AUTOSYM since
 SYMMETRY directive was detected!


          ------
          auto-z
          ------
  no constraints, skipping    0.0000000000000000     
  no constraints, skipping    0.0000000000000000     


                             Geometry "geometry" -> ""
                             -------------------------

 Output coordinates in a.u. (scale by  1.000000000 to convert to a.u.)

  No.       Tag          Charge          X              Y              Z
 ---- ---------------- ---------- -------------- -------------- --------------
    1 O                    8.0000    -0.17255800    -0.12501535     0.00000000
    2 H                    1.0000    -0.17255800     1.77373815     0.00000000
    3 H                    1.0000     1.55302200    -0.77361535     0.00000000

      Atomic Mass 
      ----------- 

      O                 15.994910
      H                  1.007825


 Effective nuclear repulsion energy (a.u.)       8.8779934400

            Nuclear Dipole moment (a.u.) 
            ----------------------------
        X                 Y               Z
 ---------------- ---------------- ----------------
    -0.0000000000    -0.0000000000     0.0000000000



                                Z-matrix (autoz)
                                -------- 

 Units are Angstrom for bonds and degrees for angles

      Type          Name      I     J     K     L     M      Value
      ----------- --------  ----- ----- ----- ----- ----- ----------
    1 Stretch                  1     2                       1.00478
    2 Stretch                  1     3                       0.97551
    3 Bend                     2     1     3               110.59992


            XYZ format geometry
            -------------------
     3
 geometry
 O                    -0.09131377    -0.06615528     0.00000000
 H                    -0.09131377     0.93862187     0.00000000
 H                     0.82182391    -0.40937964     0.00000000

 ==============================================================================
                                internuclear distances
 ------------------------------------------------------------------------------
       center one      |      center two      | atomic units |       a.u.
 ------------------------------------------------------------------------------
    2 H                |   1 O                |     1.89875  |     1.89875
    3 H                |   1 O                |     1.84345  |     1.84345
 ------------------------------------------------------------------------------
                         number of included internuclear distances:          2
 ==============================================================================



 ==============================================================================
                                 internuclear angles
 ------------------------------------------------------------------------------
        center 1       |       center 2       |       center 3       |  degrees
 ------------------------------------------------------------------------------
    2 H                |   1 O                |   3 H                |   110.60
 ------------------------------------------------------------------------------
                            number of included internuclear angles:          1
 ==============================================================================





 Summary of "ao basis" -> "" (spherical)
 ------------------------------------------------------------------------------
       Tag                 Description            Shells   Functions and Types
 ---------------- ------------------------------  ------  ---------------------
 *                          cc-pVDZ                   on all atoms 


                      Basis "ao basis" -> "ao basis" (spherical)
                      -----
  O (Oxygen)
  ----------
            Exponent  Coefficients 
       -------------- ---------------------------------------------------------
  1 S  1.17200000E+04  0.000710
  1 S  1.75900000E+03  0.005470
  1 S  4.00800000E+02  0.027837
  1 S  1.13700000E+02  0.104800
  1 S  3.70300000E+01  0.283062
  1 S  1.32700000E+01  0.448719
  1 S  5.02500000E+00  0.270952
  1 S  1.01300000E+00  0.015458

  2 S  1.17200000E+04 -0.000160
  2 S  1.75900000E+03 -0.001263
  2 S  4.00800000E+02 -0.006267
  2 S  1.13700000E+02 -0.025716
  2 S  3.70300000E+01 -0.070924
  2 S  1.32700000E+01 -0.165411
  2 S  5.02500000E+00 -0.116955
  2 S  1.01300000E+00  0.557368

  3 S  3.02300000E-01  1.000000

  4 P  1.77000000E+01  0.043018
  4 P  3.85400000E+00  0.228913
  4 P  1.04600000E+00  0.508728

  5 P  2.75300000E-01  1.000000

  6 D  1.18500000E+00  1.000000

  H (Hydrogen)
  ------------
            Exponent  Coefficients 
       -------------- ---------------------------------------------------------
  1 S  1.30100000E+01  0.019685
  1 S  1.96200000E+00  0.137977
  1 S  4.44600000E-01  0.478148

  2 S  1.22000000E-01  1.000000

  3 P  7.27000000E-01  1.000000



 Summary of "ao basis" -> "ao basis" (spherical)
 ------------------------------------------------------------------------------
       Tag                 Description            Shells   Functions and Types
 ---------------- ------------------------------  ------  ---------------------
 O                          cc-pVDZ                  6       14   3s2p1d
 H                          cc-pVDZ                  3        5   2s1p



                            NWChem Direct MCSCF Module
                            --------------------------


                                        H2O


     -----------------------------------
       Basis functions:             24
       Inactive shells:              0
       Active shells:                8
       Active electrons:            10
       Symmetry:                    a       
       Multiplicity:                 1
       Orbital rotations:          128
     -----------------------------------

     -----------------------------------
       E2 extrapolation:             F
       Conjugacy:                    T
       Micro CI relax:               T
       Canonical orbitals:           T
       Maximum iterations:          40
       Converge threshold:    1.00E-04
       Conjugacy resets:            20
       Initial levelshift:        0.10
     -----------------------------------

 Loading old vectors from job with title :

H2O


   input molecular orbitals = ./h2o.mos
  output molecular orbtials = ./h2o.mos

       No. of determinants:          3136


  Starting Orbital Energies
   -20.546836    -1.326400    -0.718014    -0.565983    -0.509875    -0.026834
    -0.025259    -0.014120     0.468846     0.513443     1.038562     1.087693
     1.450488     1.489635     1.695855     1.865792     1.870689     2.300561
     2.350800     3.222086     3.328504     3.420731     3.864263     4.033024

  Orbital Symmetry Irreps
a    a    a    a    a    a    a    a    a    a    a    a    a    a    a   
a    a    a    a    a    a    a    a    a   

 #quartets = 3.081D+03 #integrals = 2.131D+04 #direct =  0.0% #cached =100.0%


 Integral file          = ./H2O.aoints.0
 Record size in doubles =  65536        No. of integs per rec  =  43688
 Max. records in memory =      4        Max. records in file   = 232378
 No. of bits per label  =      8        No. of bits per value  =     64




          %%%%% MacroIteration   1 %%%%%


          Number of sigma calls:       15
                       o<<<<< (aa):             0.00
                       o<<<<< (bb):             0.00
                       o<<<<< (ab):             0.04
                       o<<<<< (total)           0.05
                       o<<<<< (aa) ff           0.00
                       o<<<<< (aa) gop          0.00
                       o<<<<< (aa) dot          0.00
                       o<<<<< (ab) str          0.00
                       o<<<<< (ab) gath         0.00
                       o<<<<< (ab) dotab        0.00
                       o<<<<< (ab) scat         0.00
                       o<<<<< (ab) sync         0.00
                       o<<<<< Density           0.01
                       o<<<<< Density one       0.00
                       o<<<<< Density two       0.00
                       o<<<<< Density ab        0.01
                       o<<<<< Spin adapt        0.32
                       o<<<<< Symm adapt        0.00

                       o<<<<< (ab) max sync:      0.00

           >>>| Valence CI:            -84.990666899700
           >>>| MCSCF energy:          -76.112673459687
           >>>| Gradient norm:          0.931074826D-02

                              ----- Line search ------

        step       energy         lsg     num-lsg   num-lsh   lsrat    time
      ------- ---------------- --------- --------- --------- ------- --------
       0.0000     -76.11267346 -1.18D-05  0.00D+00  0.00D+00 0.0D+00      0.5

          Number of sigma calls:       14
                       o<<<<< (aa):             0.00
                       o<<<<< (bb):             0.00
                       o<<<<< (ab):             0.04
                       o<<<<< (total)           0.05
                       o<<<<< (aa) ff           0.00
                       o<<<<< (aa) gop          0.00
                       o<<<<< (aa) dot          0.00
                       o<<<<< (ab) str          0.00
                       o<<<<< (ab) gath         0.00
                       o<<<<< (ab) dotab        0.00
                       o<<<<< (ab) scat         0.00
                       o<<<<< (ab) sync         0.00
                       o<<<<< Density           0.00
                       o<<<<< Density one       0.00
                       o<<<<< Density two       0.00
                       o<<<<< Density ab        0.00
                       o<<<<< Spin adapt        0.32
                       o<<<<< Symm adapt        0.00

                       o<<<<< (ab) max sync:      0.00
       1.0000     -76.11267951 -3.38D-07 -3.38D-07  1.14D-05 2.9D-02      0.9
     --- Orbitals canonicalized ---



          %%%%% MacroIteration   2 %%%%%


          Number of sigma calls:       11
                       o<<<<< (aa):             0.00
                       o<<<<< (bb):             0.00
                       o<<<<< (ab):             0.03
                       o<<<<< (total)           0.03
                       o<<<<< (aa) ff           0.00
                       o<<<<< (aa) gop          0.00
                       o<<<<< (aa) dot          0.00
                       o<<<<< (ab) str          0.00
                       o<<<<< (ab) gath         0.00
                       o<<<<< (ab) dotab        0.00
                       o<<<<< (ab) scat         0.00
                       o<<<<< (ab) sync         0.00
                       o<<<<< Density           0.01
                       o<<<<< Density one       0.00
                       o<<<<< Density two       0.00
                       o<<<<< Density ab        0.01
                       o<<<<< Spin adapt        0.24
                       o<<<<< Symm adapt        0.00

                       o<<<<< (ab) max sync:      0.00

           >>>| Valence CI:            -84.990672948480
           >>>| MCSCF energy:          -76.112679508468
           >>>| Gradient norm:          0.658995505D-03
     --- Warning:    2 Hessian diagonals < 0.05 ---
     --- Conjugacy reset ---

                              ----- Line search ------

        step       energy         lsg     num-lsg   num-lsh   lsrat    time
      ------- ---------------- --------- --------- --------- ------- --------
       0.0000     -76.11267951 -8.88D-08  0.00D+00  0.00D+00 0.0D+00      1.2

          Number of sigma calls:        9
                       o<<<<< (aa):             0.00
                       o<<<<< (bb):             0.00
                       o<<<<< (ab):             0.03
                       o<<<<< (total)           0.03
                       o<<<<< (aa) ff           0.00
                       o<<<<< (aa) gop          0.00
                       o<<<<< (aa) dot          0.00
                       o<<<<< (ab) str          0.00
                       o<<<<< (ab) gath         0.00
                       o<<<<< (ab) dotab        0.00
                       o<<<<< (ab) scat         0.00
                       o<<<<< (ab) sync         0.00
                       o<<<<< Density           0.00
                       o<<<<< Density one       0.00
                       o<<<<< Density two       0.00
                       o<<<<< Density ab        0.00
                       o<<<<< Spin adapt        0.26
                       o<<<<< Symm adapt        0.00

                       o<<<<< (ab) max sync:      0.00
       1.0000     -76.11267957 -2.59D-08 -2.59D-08  6.29D-08 2.9D-01      1.5

          Number of sigma calls:        8
                       o<<<<< (aa):             0.00
                       o<<<<< (bb):             0.00
                       o<<<<< (ab):             0.02
                       o<<<<< (total)           0.03
                       o<<<<< (aa) ff           0.00
                       o<<<<< (aa) gop          0.00
                       o<<<<< (aa) dot          0.00
                       o<<<<< (ab) str          0.00
                       o<<<<< (ab) gath         0.00
                       o<<<<< (ab) dotab        0.00
                       o<<<<< (ab) scat         0.00
                       o<<<<< (ab) sync         0.00
                       o<<<<< Density           0.00
                       o<<<<< Density one       0.00
                       o<<<<< Density two       0.00
                       o<<<<< Density ab        0.00
                       o<<<<< Spin adapt        0.13
                       o<<<<< Symm adapt        0.00

                       o<<<<< (ab) max sync:      0.00
       1.4111     -76.11267957  1.89D-11  1.87D-11  6.29D-08 2.1D-04      1.7



          %%%%% MacroIteration   3 %%%%%


          Number of sigma calls:        1
                       o<<<<< (aa):             0.00
                       o<<<<< (bb):             0.00
                       o<<<<< (ab):             0.00
                       o<<<<< (total)           0.00
                       o<<<<< (aa) ff           0.00
                       o<<<<< (aa) gop          0.00
                       o<<<<< (aa) dot          0.00
                       o<<<<< (ab) str          0.00
                       o<<<<< (ab) gath         0.00
                       o<<<<< (ab) dotab        0.00
                       o<<<<< (ab) scat         0.00
                       o<<<<< (ab) sync         0.00
                       o<<<<< Density           0.01
                       o<<<<< Density one       0.00
                       o<<<<< Density two       0.00
                       o<<<<< Density ab        0.01
                       o<<<<< Spin adapt        0.00
                       o<<<<< Symm adapt        0.00

                       o<<<<< (ab) max sync:      0.00

           >>>| Valence CI:            -84.990673011104
           >>>| MCSCF energy:          -76.112679571091
           >>>| Gradient norm:          0.106581129D-03
     --- Warning:    2 Hessian diagonals < 0.05 ---

                              ----- Line search ------

        step       energy         lsg     num-lsg   num-lsh   lsrat    time
      ------- ---------------- --------- --------- --------- ------- --------
       0.0000     -76.11267957 -1.46D-09  0.00D+00  0.00D+00 0.0D+00      1.7

          Number of sigma calls:        7
                       o<<<<< (aa):             0.00
                       o<<<<< (bb):             0.00
                       o<<<<< (ab):             0.02
                       o<<<<< (total)           0.03
                       o<<<<< (aa) ff           0.00
                       o<<<<< (aa) gop          0.00
                       o<<<<< (aa) dot          0.00
                       o<<<<< (ab) str          0.00
                       o<<<<< (ab) gath         0.00
                       o<<<<< (ab) dotab        0.00
                       o<<<<< (ab) scat         0.00
                       o<<<<< (ab) sync         0.00
                       o<<<<< Density           0.00
                       o<<<<< Density one       0.00
                       o<<<<< Density two       0.00
                       o<<<<< Density ab        0.00
                       o<<<<< Spin adapt        0.16
                       o<<<<< Symm adapt        0.00

                       o<<<<< (ab) max sync:      0.00
       1.0000     -76.11267957 -3.79D-10 -3.79D-10  1.08D-09 2.6D-01      1.9

          Number of sigma calls:        7
                       o<<<<< (aa):             0.00
                       o<<<<< (bb):             0.00
                       o<<<<< (ab):             0.02
                       o<<<<< (total)           0.02
                       o<<<<< (aa) ff           0.00
                       o<<<<< (aa) gop          0.00
                       o<<<<< (aa) dot          0.00
                       o<<<<< (ab) str          0.00
                       o<<<<< (ab) gath         0.00
                       o<<<<< (ab) dotab        0.00
                       o<<<<< (ab) scat         0.00
                       o<<<<< (ab) sync         0.00
                       o<<<<< Density           0.01
                       o<<<<< Density one       0.00
                       o<<<<< Density two       0.00
                       o<<<<< Density ab        0.00
                       o<<<<< Spin adapt        0.14
                       o<<<<< Symm adapt        0.00

                       o<<<<< (ab) max sync:      0.00
       1.3494     -76.11267957  6.12D-15 -5.91D-14  1.08D-09 4.2D-06      2.1



          %%%%% MacroIteration   4 %%%%%


          Number of sigma calls:        1
                       o<<<<< (aa):             0.00
                       o<<<<< (bb):             0.00
                       o<<<<< (ab):             0.00
                       o<<<<< (total)           0.00
                       o<<<<< (aa) ff           0.00
                       o<<<<< (aa) gop          0.00
                       o<<<<< (aa) dot          0.00
                       o<<<<< (ab) str          0.00
                       o<<<<< (ab) gath         0.00
                       o<<<<< (ab) dotab        0.00
                       o<<<<< (ab) scat         0.00
                       o<<<<< (ab) sync         0.00
                       o<<<<< Density           0.00
                       o<<<<< Density one       0.00
                       o<<<<< Density two       0.00
                       o<<<<< Density ab        0.00
                       o<<<<< Spin adapt        0.00
                       o<<<<< Symm adapt        0.00

                       o<<<<< (ab) max sync:      0.00

           >>>| Valence CI:            -84.990673012091
           >>>| MCSCF energy:          -76.112679572079
           >>>| Gradient norm:          0.336228518D-04




     ==============================
            MCSCF Converged
     ==============================



          Canonical Eigenvalues

              1      
    1  -20.5472
    2   -1.3253
    3   -0.7168
    4   -0.5656
    5   -0.5097
    6   -0.0270
    7   -0.0253
    8   -0.0141
    9    0.4694
   10    0.5136
   11    1.0384
   12    1.0886
   13    1.4501
   14    1.4903
   15    1.6956
   16    1.8645
   17    1.8695
   18    2.2915
   19    2.3507
   20    3.2197
   21    3.3267
   22    3.4178
   23    3.8615
   24    4.0315


          Converged CI vector

   Index           Coefficient          Config. Occupation
         1         -0.97558074          1  2  3  4  5  1  2  3  4  5
        22         -0.06947176          1  2  3  4  5  1  2  3  4  8
         3          0.04282194          1  2  3  4  5  1  2  3  5  6
        27          0.02004920          1  2  3  4  5  1  2  3  6  8
         9         -0.03979971          1  2  3  4  5  1  2  4  5  7
        38         -0.02370721          1  2  3  4  5  1  2  4  7  8
      1177         -0.06947176          1  2  3  4  8  1  2  3  4  5
      1198          0.04849176          1  2  3  4  8  1  2  3  4  8
      1179         -0.02469570          1  2  3  4  8  1  2  3  5  6
      1185          0.03243611          1  2  3  4  8  1  2  4  5  7
      1181          0.02032253          1  2  3  4  8  1  3  4  5  6
       113          0.04282194          1  2  3  5  6  1  2  3  4  5
       134         -0.02469570          1  2  3  5  6  1  2  3  4  8
       115          0.04185896          1  2  3  5  6  1  2  3  5  6
       116          0.02325332          1  2  3  5  6  1  2  4  5  6
       121         -0.03118723          1  2  3  5  6  1  2  4  5  7
       117         -0.02613479          1  2  3  5  6  1  3  4  5  6
       400          0.02394985          1  2  3  5  7  1  2  3  5  7
       401         -0.02047928          1  2  3  5  7  1  2  4  5  7
      1457          0.02004920          1  2  3  6  8  1  2  3  4  5
       171          0.02325332          1  2  4  5  6  1  2  3  5  6
       172          0.03435845          1  2  4  5  6  1  2  4  5  6
       449         -0.03979971          1  2  4  5  7  1  2  3  4  5
       470          0.03243611          1  2  4  5  7  1  2  3  4  8
       451         -0.03118723          1  2  4  5  7  1  2  3  5  6
       456         -0.02047928          1  2  4  5  7  1  2  3  5  7
       457          0.06045064          1  2  4  5  7  1  2  4  5  7
       453          0.02211182          1  2  4  5  7  1  3  4  5  6
      2073         -0.02370721          1  2  4  7  8  1  2  3  4  5
       246          0.02032253          1  3  4  5  6  1  2  3  4  8
       227         -0.02613479          1  3  4  5  6  1  2  3  5  6
       233          0.02211182          1  3  4  5  6  1  2  4  5  7
       229          0.02744881          1  3  4  5  6  1  3  4  5  6

          Number of sigma calls:        1
                       o<<<<< (aa):             0.00
                       o<<<<< (bb):             0.00
                       o<<<<< (ab):             0.00
                       o<<<<< (total)           0.00
                       o<<<<< (aa) ff           0.00
                       o<<<<< (aa) gop          0.00
                       o<<<<< (aa) dot          0.00
                       o<<<<< (ab) str          0.00
                       o<<<<< (ab) gath         0.00
                       o<<<<< (ab) dotab        0.00
                       o<<<<< (ab) scat         0.00
                       o<<<<< (ab) sync         0.00
                       o<<<<< Density           0.00
                       o<<<<< Density one       0.00
                       o<<<<< Density two       0.00
                       o<<<<< Density ab        0.00
                       o<<<<< Spin adapt        0.00
                       o<<<<< Symm adapt        0.00

                       o<<<<< (ab) max sync:      0.00



          Natural orbital occupation numbers

              1      
    1    2.0000
    2    1.9988
    3    1.9835
    4    1.9764
    5    1.9745
    6    0.0264
    7    0.0245
    8    0.0160


          Number of sigma calls:       15
                       o<<<<< (aa):             0.00
                       o<<<<< (bb):             0.00
                       o<<<<< (ab):             0.05
                       o<<<<< (total)           0.05
                       o<<<<< (aa) ff           0.00
                       o<<<<< (aa) gop          0.00
                       o<<<<< (aa) dot          0.00
                       o<<<<< (ab) str          0.00
                       o<<<<< (ab) gath         0.00
                       o<<<<< (ab) dotab        0.00
                       o<<<<< (ab) scat         0.00
                       o<<<<< (ab) sync         0.00
                       o<<<<< Density           0.01
                       o<<<<< Density one       0.00
                       o<<<<< Density two       0.00
                       o<<<<< Density ab        0.01
                       o<<<<< Spin adapt        0.37
                       o<<<<< Symm adapt        0.00

                       o<<<<< (ab) max sync:      0.00


       Final MCSCF results 
       ------------------- 

       Total MCSCF energy =    -76.112679572079
            Gradient norm =      3.4D-05

    CPU time for solution =      2.6s
   Wall time for solution =      4.8s



                        Analysis of MCSCF natural orbitals
                        ----------------------------------

 Vector    1  Occ=1.999991D+00  E=-2.054719D+01  Symmetry=a
              MO Center= -9.1D-02, -6.6D-02,  4.5D-09, r^2= 1.6D-02
   Bfn.  Coefficient  Atom+Function         Bfn.  Coefficient  Atom+Function  
  ----- ------------  ---------------      ----- ------------  ---------------
     1      0.997923  1 O  s          

 Vector    2  Occ=1.998768D+00  E=-1.325334D+00  Symmetry=a
              MO Center= -3.1D-01, -2.1D-01, -4.9D-06, r^2= 4.0D-01
   Bfn.  Coefficient  Atom+Function         Bfn.  Coefficient  Atom+Function  
  ----- ------------  ---------------      ----- ------------  ---------------
     3      0.516481  1 O  s                  2      0.444941  1 O  s          
     4     -0.217726  1 O  px                 7     -0.186656  1 O  px         

 Vector    3  Occ=1.983543D+00  E=-7.167846D-01  Symmetry=a
              MO Center= -7.3D-02, -5.4D-02,  4.6D-06, r^2= 6.1D-01
   Bfn.  Coefficient  Atom+Function         Bfn.  Coefficient  Atom+Function  
  ----- ------------  ---------------      ----- ------------  ---------------
     6      0.626715  1 O  pz                 9      0.502147  1 O  pz         

 Vector    4  Occ=1.976372D+00  E=-5.656013D-01  Symmetry=a
              MO Center=  3.7D-01, -1.4D-01,  2.5D-07, r^2= 5.6D-01
   Bfn.  Coefficient  Atom+Function         Bfn.  Coefficient  Atom+Function  
  ----- ------------  ---------------      ----- ------------  ---------------
     4      0.491366  1 O  px                20      0.406836  3 H  s          
     7      0.268442  1 O  px         

 Vector    5  Occ=1.974487D+00  E=-5.097298D-01  Symmetry=a
              MO Center= -5.6D-02,  3.7D-01,  9.7D-08, r^2= 6.6D-01
   Bfn.  Coefficient  Atom+Function         Bfn.  Coefficient  Atom+Function  
  ----- ------------  ---------------      ----- ------------  ---------------
     5      0.488976  1 O  py                15      0.416917  2 H  s          
     8      0.238872  1 O  py         

 Vector    6  Occ=2.635616D-02  E=-2.701781D-02  Symmetry=a
              MO Center= -1.7D-02,  5.8D-01,  5.3D-07, r^2= 6.4D-01
   Bfn.  Coefficient  Atom+Function         Bfn.  Coefficient  Atom+Function  
  ----- ------------  ---------------      ----- ------------  ---------------
     5      0.803347  1 O  py                15     -0.687327  2 H  s          
     2      0.406530  1 O  s                  4      0.211738  1 O  px         
    16     -0.204734  2 H  s          

 Vector    7  Occ=2.448193D-02  E=-2.529503D-02  Symmetry=a
              MO Center=  4.8D-01, -2.5D-01,  4.0D-07, r^2= 6.6D-01
   Bfn.  Coefficient  Atom+Function         Bfn.  Coefficient  Atom+Function  
  ----- ------------  ---------------      ----- ------------  ---------------
     4      0.812655  1 O  px                20     -0.711282  3 H  s          
     5     -0.333973  1 O  py                 2      0.311595  1 O  s          
    21     -0.212738  3 H  s          

 Vector    8  Occ=1.600065D-02  E=-1.411187D-02  Symmetry=a
              MO Center= -5.0D-02, -3.8D-02,  5.1D-06, r^2= 1.1D+00
   Bfn.  Coefficient  Atom+Function         Bfn.  Coefficient  Atom+Function  
  ----- ------------  ---------------      ----- ------------  ---------------
     6      0.965289  1 O  pz                 9     -0.949014  1 O  pz         

 Vector    9  Occ=0.000000D+00  E= 4.694127D-01  Symmetry=a
              MO Center=  4.4D-01,  2.3D-01, -1.6D-06, r^2= 3.7D+00
   Bfn.  Coefficient  Atom+Function         Bfn.  Coefficient  Atom+Function  
  ----- ------------  ---------------      ----- ------------  ---------------
     3      1.096079  1 O  s                 21     -1.055377  3 H  s          
    16     -0.950526  2 H  s                  7      0.407780  1 O  px         
    15      0.380419  2 H  s                 20      0.376580  3 H  s          
     8      0.251014  1 O  py                 4     -0.186262  1 O  px         
     2     -0.160872  1 O  s                 18      0.161346  2 H  py         

 Vector   10  Occ=0.000000D+00  E= 5.136034D-01  Symmetry=a
              MO Center=  4.7D-01,  4.2D-01,  3.5D-09, r^2= 4.2D+00
   Bfn.  Coefficient  Atom+Function         Bfn.  Coefficient  Atom+Function  
  ----- ------------  ---------------      ----- ------------  ---------------
    16      1.624952  2 H  s                 21     -1.576732  3 H  s          
    15     -0.540516  2 H  s                  8     -0.489867  1 O  py         
    20      0.489325  3 H  s                  7      0.332237  1 O  px         
    22      0.151760  3 H  px         

 Vector   11  Occ=0.000000D+00  E= 1.038390D+00  Symmetry=a
              MO Center=  3.7D-02,  9.3D-02,  2.1D-07, r^2= 1.3D+00
   Bfn.  Coefficient  Atom+Function         Bfn.  Coefficient  Atom+Function  
  ----- ------------  ---------------      ----- ------------  ---------------
     7      0.992713  1 O  px                20     -0.892980  3 H  s          
    15     -0.690691  2 H  s                  3      0.674684  1 O  s          
     8      0.446730  1 O  py                 4     -0.423525  1 O  px         
     5     -0.252089  1 O  py                17      0.228142  2 H  px         
    23      0.156012  3 H  py         

 Vector   12  Occ=0.000000D+00  E= 1.088616D+00  Symmetry=a
              MO Center= -1.2D-01, -1.5D-01, -4.1D-08, r^2= 1.6D+00
   Bfn.  Coefficient  Atom+Function         Bfn.  Coefficient  Atom+Function  
  ----- ------------  ---------------      ----- ------------  ---------------
     8      1.527556  1 O  py                 7     -0.907425  1 O  px         
    15     -0.851048  2 H  s                 20      0.703155  3 H  s          
    21      0.531561  3 H  s                 16     -0.519926  2 H  s          
     5     -0.393054  1 O  py                18      0.191493  2 H  py         
    23      0.189272  3 H  py                 4      0.187237  1 O  px         

 Vector   13  Occ=0.000000D+00  E= 1.450062D+00  Symmetry=a
              MO Center=  3.2D-01,  2.5D-01,  1.2D-07, r^2= 1.1D+00
   Bfn.  Coefficient  Atom+Function         Bfn.  Coefficient  Atom+Function  
  ----- ------------  ---------------      ----- ------------  ---------------
    19      0.684898  2 H  pz                24     -0.672746  3 H  pz         

 Vector   14  Occ=0.000000D+00  E= 1.490346D+00  Symmetry=a
              MO Center= -8.1D-02, -5.1D-02, -1.1D-06, r^2= 1.4D+00
   Bfn.  Coefficient  Atom+Function         Bfn.  Coefficient  Atom+Function  
  ----- ------------  ---------------      ----- ------------  ---------------
     3      0.795953  1 O  s                  2     -0.706759  1 O  s          
     7     -0.613259  1 O  px                17      0.592923  2 H  px         
    23      0.539768  3 H  py                 8     -0.422612  1 O  py         
     1     -0.286511  1 O  s                 22      0.258960  3 H  px         
     4      0.236753  1 O  px                21     -0.230106  3 H  s          

 Vector   15  Occ=0.000000D+00  E= 1.695553D+00  Symmetry=a
              MO Center=  2.0D-01,  1.4D-01,  1.9D-08, r^2= 1.3D+00
   Bfn.  Coefficient  Atom+Function         Bfn.  Coefficient  Atom+Function  
  ----- ------------  ---------------      ----- ------------  ---------------
    24     -0.771949  3 H  pz                19     -0.755189  2 H  pz         
     9      0.719441  1 O  pz         

 Vector   16  Occ=0.000000D+00  E= 1.864550D+00  Symmetry=a
              MO Center=  1.2D-01,  2.5D-01, -1.5D-06, r^2= 1.3D+00
   Bfn.  Coefficient  Atom+Function         Bfn.  Coefficient  Atom+Function  
  ----- ------------  ---------------      ----- ------------  ---------------
     3      1.944239  1 O  s                  2     -1.120335  1 O  s          
     7      0.909136  1 O  px                20     -0.856625  3 H  s          
    17     -0.799365  2 H  px                 1     -0.509953  1 O  s          
    21     -0.323855  3 H  s                 23      0.235676  3 H  py         
     8     -0.226409  1 O  py                22      0.225088  3 H  px         

 Vector   17  Occ=0.000000D+00  E= 1.869511D+00  Symmetry=a
              MO Center=  2.6D-01,  3.7D-02, -1.4D-06, r^2= 1.3D+00
   Bfn.  Coefficient  Atom+Function         Bfn.  Coefficient  Atom+Function  
  ----- ------------  ---------------      ----- ------------  ---------------
     3      1.807143  1 O  s                  2     -1.073051  1 O  s          
     8      0.917784  1 O  py                15     -0.804626  2 H  s          
    23     -0.796557  3 H  py                 1     -0.486476  1 O  s          
    17      0.335717  2 H  px                16     -0.278188  2 H  s          
    22     -0.208306  3 H  px                20     -0.184695  3 H  s          

 Vector   18  Occ=0.000000D+00  E= 2.291491D+00  Symmetry=a
              MO Center= -9.0D-02,  9.0D-01,  2.1D-08, r^2= 7.1D-01
   Bfn.  Coefficient  Atom+Function         Bfn.  Coefficient  Atom+Function  
  ----- ------------  ---------------      ----- ------------  ---------------
    18      1.362265  2 H  py                 3      1.003090  1 O  s          
    15     -0.504401  2 H  s                  5      0.495303  1 O  py         
    16     -0.440401  2 H  s                  8      0.423421  1 O  py         
    20     -0.227410  3 H  s                  2      0.214389  1 O  s          
    23     -0.178226  3 H  py         


 Wrote Lagrangian and 1- and 2-particle density matrices to ./H2O.mcpdm


     Multipole analysis of the density
     ---------------------------------

     L   x y z        total        nuclear
     -   - - -        -----        -------
     0   0 0 0     -0.000000     10.000000

     1   1 0 0      0.595124     -0.000000
     1   0 1 0      0.420942     -0.000000
     1   0 0 1     -0.000000      0.000000

     2   2 0 0     -4.040392      2.679864
     2   1 1 0     -0.753327     -1.334935
     2   1 0 1      0.000000      0.000000
     2   0 2 0     -3.416193      3.869658
     2   0 1 1      0.000000      0.000000
     2   0 0 2     -5.314362      0.000000


  Mulliken analysis of the total density
  --------------------------------------

    Atom       Charge   Shell Charges
 -----------   ------   -------------------------------------------------------
    1 O    8     8.33   2.00  0.84  0.85  2.81  1.82  0.01
    2 H    1     0.83   0.66  0.09  0.07
    3 H    1     0.84   0.68  0.08  0.08

    Mulliken analysis of the active space density
    ---------------------------------------------

    Atom       Charge   Shell Charges
 -----------   ------   -------------------------------------------------------
    1 O    8     8.33   2.00  0.84  0.85  2.81  1.82  0.01
    2 H    1     0.83   0.66  0.09  0.07
    3 H    1     0.84   0.68  0.08  0.08

 Parallel integral file used       1 records with       0 large values


 Task  times  cpu:        2.6s     wall:        4.8s


                                NWChem Input Module
                                -------------------


                                 NWChem SCF Module
                                 -----------------


                                        H2O



  ao basis        = "ao basis"
  functions       =    24
  atoms           =     3
  closed shells   =     5
  open shells     =     0
  charge          =   0.00
  wavefunction    = RHF 
  input vectors   = ./h2o.mos
  output vectors  = ./h2o-trash.mos
  use symmetry    = F
  symmetry adapt  = F


 Summary of "ao basis" -> "ao basis" (spherical)
 ------------------------------------------------------------------------------
       Tag                 Description            Shells   Functions and Types
 ---------------- ------------------------------  ------  ---------------------
 O                          cc-pVDZ                  6       14   3s2p1d
 H                          cc-pVDZ                  3        5   2s1p



 Forming initial guess at       4.8s


 Loading old vectors from job with title :

H2O


 Starting SCF solution at       4.8s



 ----------------------------------------------
         Quadratically convergent ROHF

 Convergence threshold     :          1.000E-04
 Maximum no. of iterations :           30
 Final Fock-matrix accuracy:          1.000E-07
 ----------------------------------------------


 #quartets = 3.081D+03 #integrals = 2.131D+04 #direct =  0.0% #cached =100.0%


 Integral file          = ./H2O.aoints.0
 Record size in doubles =  65536        No. of integs per rec  =  43688
 Max. records in memory =      4        Max. records in file   = 232378
 No. of bits per label  =      8        No. of bits per value  =     64



       Final RHF  results 
       ------------------ 

         Total SCF energy =    -76.020592488726
      One-electron energy =   -122.581645420669
      Two-electron energy =     37.683059491931
 Nuclear repulsion energy =      8.877993440013

        Time for solution =      0.0s


             Final eigenvalues
             -----------------

              1      
    1  -20.5472
    2   -1.3253
    3   -0.7168
    4   -0.5656
    5   -0.5097
    6   -0.0270
    7   -0.0253
    8   -0.0141
    9    0.4694
   10    0.5136
   11    1.0384
   12    1.0886
   13    1.4501
   14    1.4903
   15    1.6956

                       ROHF Final Molecular Orbital Analysis
                       -------------------------------------

 Vector    2  Occ=2.000000D+00  E=-1.325334D+00
              MO Center= -3.1D-01, -2.1D-01, -4.9D-06, r^2= 4.0D-01
   Bfn.  Coefficient  Atom+Function         Bfn.  Coefficient  Atom+Function  
  ----- ------------  ---------------      ----- ------------  ---------------
     3      0.516481  1 O  s                  2      0.444941  1 O  s          
     4     -0.217726  1 O  px                 7     -0.186656  1 O  px         

 Vector    3  Occ=2.000000D+00  E=-7.167846D-01
              MO Center= -7.3D-02, -5.4D-02,  4.6D-06, r^2= 6.1D-01
   Bfn.  Coefficient  Atom+Function         Bfn.  Coefficient  Atom+Function  
  ----- ------------  ---------------      ----- ------------  ---------------
     6      0.626715  1 O  pz                 9      0.502147  1 O  pz         

 Vector    4  Occ=2.000000D+00  E=-5.656013D-01
              MO Center=  3.7D-01, -1.4D-01,  2.5D-07, r^2= 5.6D-01
   Bfn.  Coefficient  Atom+Function         Bfn.  Coefficient  Atom+Function  
  ----- ------------  ---------------      ----- ------------  ---------------
     4      0.491366  1 O  px                20      0.406836  3 H  s          
     7      0.268442  1 O  px         

 Vector    5  Occ=2.000000D+00  E=-5.097298D-01
              MO Center= -5.6D-02,  3.7D-01,  9.7D-08, r^2= 6.6D-01
   Bfn.  Coefficient  Atom+Function         Bfn.  Coefficient  Atom+Function  
  ----- ------------  ---------------      ----- ------------  ---------------
     5      0.488976  1 O  py                15      0.416917  2 H  s          
     8      0.238872  1 O  py         

 Vector    6  Occ=0.000000D+00  E=-2.701781D-02
              MO Center= -1.7D-02,  5.8D-01,  5.3D-07, r^2= 6.4D-01
   Bfn.  Coefficient  Atom+Function         Bfn.  Coefficient  Atom+Function  
  ----- ------------  ---------------      ----- ------------  ---------------
     5      0.803347  1 O  py                15     -0.687327  2 H  s          
     2      0.406530  1 O  s                  4      0.211738  1 O  px         
    16     -0.204734  2 H  s          

 Vector    7  Occ=0.000000D+00  E=-2.529503D-02
              MO Center=  4.8D-01, -2.5D-01,  4.0D-07, r^2= 6.6D-01
   Bfn.  Coefficient  Atom+Function         Bfn.  Coefficient  Atom+Function  
  ----- ------------  ---------------      ----- ------------  ---------------
     4      0.812655  1 O  px                20     -0.711282  3 H  s          
     5     -0.333973  1 O  py                 2      0.311595  1 O  s          
    21     -0.212738  3 H  s          

 Vector    8  Occ=0.000000D+00  E=-1.411187D-02
              MO Center= -5.0D-02, -3.8D-02,  5.1D-06, r^2= 1.1D+00
   Bfn.  Coefficient  Atom+Function         Bfn.  Coefficient  Atom+Function  
  ----- ------------  ---------------      ----- ------------  ---------------
     6      0.965289  1 O  pz                 9     -0.949014  1 O  pz         

 Vector    9  Occ=0.000000D+00  E= 4.694127D-01
              MO Center=  4.4D-01,  2.3D-01, -1.6D-06, r^2= 3.7D+00
   Bfn.  Coefficient  Atom+Function         Bfn.  Coefficient  Atom+Function  
  ----- ------------  ---------------      ----- ------------  ---------------
     3      1.096079  1 O  s                 21     -1.055377  3 H  s          
    16     -0.950526  2 H  s                  7      0.407780  1 O  px         
    15      0.380419  2 H  s                 20      0.376580  3 H  s          
     8      0.251014  1 O  py                 4     -0.186262  1 O  px         
     2     -0.160872  1 O  s                 18      0.161346  2 H  py         

 Vector   10  Occ=0.000000D+00  E= 5.136034D-01
              MO Center=  4.7D-01,  4.2D-01,  3.5D-09, r^2= 4.2D+00
   Bfn.  Coefficient  Atom+Function         Bfn.  Coefficient  Atom+Function  
  ----- ------------  ---------------      ----- ------------  ---------------
    16      1.624952  2 H  s                 21     -1.576732  3 H  s          
    15     -0.540516  2 H  s                  8     -0.489867  1 O  py         
    20      0.489325  3 H  s                  7      0.332237  1 O  px         
    22      0.151760  3 H  px         

 Vector   11  Occ=0.000000D+00  E= 1.038390D+00
              MO Center=  3.7D-02,  9.3D-02,  2.1D-07, r^2= 1.3D+00
   Bfn.  Coefficient  Atom+Function         Bfn.  Coefficient  Atom+Function  
  ----- ------------  ---------------      ----- ------------  ---------------
     7      0.992713  1 O  px                20     -0.892980  3 H  s          
    15     -0.690691  2 H  s                  3      0.674684  1 O  s          
     8      0.446730  1 O  py                 4     -0.423525  1 O  px         
     5     -0.252089  1 O  py                17      0.228142  2 H  px         
    23      0.156012  3 H  py         

 Vector   12  Occ=0.000000D+00  E= 1.088616D+00
              MO Center= -1.2D-01, -1.5D-01, -4.1D-08, r^2= 1.6D+00
   Bfn.  Coefficient  Atom+Function         Bfn.  Coefficient  Atom+Function  
  ----- ------------  ---------------      ----- ------------  ---------------
     8      1.527556  1 O  py                 7     -0.907425  1 O  px         
    15     -0.851048  2 H  s                 20      0.703155  3 H  s          
    21      0.531561  3 H  s                 16     -0.519926  2 H  s          
     5     -0.393054  1 O  py                18      0.191493  2 H  py         
    23      0.189272  3 H  py                 4      0.187237  1 O  px         

 Vector   13  Occ=0.000000D+00  E= 1.450062D+00
              MO Center=  3.2D-01,  2.5D-01,  1.2D-07, r^2= 1.1D+00
   Bfn.  Coefficient  Atom+Function         Bfn.  Coefficient  Atom+Function  
  ----- ------------  ---------------      ----- ------------  ---------------
    19      0.684898  2 H  pz                24     -0.672746  3 H  pz         

 Vector   14  Occ=0.000000D+00  E= 1.490346D+00
              MO Center= -8.1D-02, -5.1D-02, -1.1D-06, r^2= 1.4D+00
   Bfn.  Coefficient  Atom+Function         Bfn.  Coefficient  Atom+Function  
  ----- ------------  ---------------      ----- ------------  ---------------
     3      0.795953  1 O  s                  2     -0.706759  1 O  s          
     7     -0.613259  1 O  px                17      0.592923  2 H  px         
    23      0.539768  3 H  py                 8     -0.422612  1 O  py         
     1     -0.286511  1 O  s                 22      0.258960  3 H  px         
     4      0.236753  1 O  px                21     -0.230106  3 H  s          

 Vector   15  Occ=0.000000D+00  E= 1.695553D+00
              MO Center=  2.0D-01,  1.4D-01,  1.9D-08, r^2= 1.3D+00
   Bfn.  Coefficient  Atom+Function         Bfn.  Coefficient  Atom+Function  
  ----- ------------  ---------------      ----- ------------  ---------------
    24     -0.771949  3 H  pz                19     -0.755189  2 H  pz         
     9      0.719441  1 O  pz         


 center of mass
 --------------
 x =  -0.07599894 y =  -0.05505995 z =   0.00000000

 moments of inertia (a.u.)
 ------------------
           3.969310522597           1.249627241040           0.000000000000
           1.249627241040           2.833002082974           0.000000000000
           0.000000000000           0.000000000000           6.802312605571

  Mulliken analysis of the total density
  --------------------------------------

    Atom       Charge   Shell Charges
 -----------   ------   -------------------------------------------------------
    1 O    8     8.33   2.00  0.84  0.85  2.81  1.83  0.01
    2 H    1     0.83   0.66  0.09  0.07
    3 H    1     0.84   0.68  0.08  0.08

       Multipole analysis of the density wrt the origin
       ------------------------------------------------

     L   x y z        total         open         nuclear
     -   - - -        -----         ----         -------
     0   0 0 0     -0.000000      0.000000     10.000000

     1   1 0 0      0.604232      0.000000     -0.000000
     1   0 1 0      0.428079      0.000000     -0.000000
     1   0 0 1     -0.000000      0.000000      0.000000

     2   2 0 0     -4.019153      0.000000      2.679864
     2   1 1 0     -0.762272      0.000000     -1.334935
     2   1 0 1      0.000000      0.000000      0.000000
     2   0 2 0     -3.386239      0.000000      3.869658
     2   0 1 1      0.000000      0.000000      0.000000
     2   0 0 2     -5.300689      0.000000      0.000000


 Parallel integral file used       1 records with       0 large values

                   NWChem Extensible Many-Electron Theory Module
                   ---------------------------------------------

              ======================================================
                   This portion of the program was automatically
                  generated by a Tensor Contraction Engine (TCE).
                  The development of this portion of the program
                 and TCE was supported by US Department of Energy,
                Office of Science, Office of Basic Energy Science.
                      TCE is a product of Battelle and PNNL.
              Please cite: S.Hirata, J.Phys.Chem.A 107, 9887 (2003).
              ======================================================

                                        H2O


            General Information
            -------------------
      Number of processors :     1
         Wavefunction type : Restricted Hartree-Fock
          No. of electrons :    10
           Alpha electrons :     5
            Beta electrons :     5
           No. of orbitals :    48
            Alpha orbitals :    24
             Beta orbitals :    24
        Alpha frozen cores :     0
         Beta frozen cores :     0
     Alpha frozen virtuals :     0
      Beta frozen virtuals :     0
         Spin multiplicity : singlet 
    Number of AO functions :    24
       Number of AO shells :    12
        Use of symmetry is : off
      Symmetry adaption is : off
         Schwarz screening : 0.10D-09

          Correlation Information
          -----------------------
          Calculation type : Coupled-cluster singles & doubles                           
   Perturbative correction : none                                                        
            Max iterations :      300
        Residual threshold : 0.10D-06
     T(0) DIIS level shift : 0.00D+00
     L(0) DIIS level shift : 0.00D+00
     T(1) DIIS level shift : 0.00D+00
     L(1) DIIS level shift : 0.00D+00
     T(R) DIIS level shift : 0.00D+00
     T(I) DIIS level shift : 0.00D+00
   CC-T/L Amplitude update :  5-th order DIIS
                I/O scheme : Global Array Library
        L-threshold :  0.10D-06
        EOM-threshold :  0.10D-06
 no EOMCCSD initial starts read in
 TCE RESTART OPTIONS
 READ_INT:   F
 WRITE_INT:  F
 READ_TA:    F
 WRITE_TA:   F
 READ_XA:    F
 WRITE_XA:   F
 READ_IN3:   F
 WRITE_IN3:  F
 SLICE:      F
 D4D5:       F
 quantumc:   F
 qrotation:  F
 pwtce:      F
 qducc:      T
 nacto:                         0
 nrotv:                         0
 nrot:                          0

            Memory Information
            ------------------
          Available GA space size is    1610612160 doubles
          Available MA space size is    1610610956 doubles

 Maximum block size        32 doubles

 tile_dim =     19

 Block   Spin    Irrep     Size     Offset   Alpha
 -------------------------------------------------
   1    alpha     a      5 doubles       0       1
   2    beta      a      5 doubles       5       1
   3    alpha     a     19 doubles      10       3
   4    beta      a     19 doubles      29       3

 Global array virtual files algorithm will be used

 Parallel file system coherency ......... OK

 #quartets = 3.081D+03 #integrals = 2.131D+04 #direct =  0.0% #cached =100.0%


 Integral file          = ./H2O.aoints.0
 Record size in doubles =  65536        No. of integs per rec  =  43688
 Max. records in memory =      4        Max. records in file   = 232378
 No. of bits per label  =      8        No. of bits per value  =     64


 Fock matrix recomputed
 1-e file size   =              576
 1-e file name   = ./H2O.f1
 Cpu & wall time / sec            0.0            0.0
 4-electron integrals stored in orbital form

 v2    file size   =           185666
 4-index algorithm nr.  13 is used
 imaxsize =       30
 imaxsize ichop =        0
 Cpu & wall time / sec            0.1            0.1
 T1-number-of-tasks                    1

 t1 file size   =               95
 t1 file name   = ./H2O.t1
 t1 file handle =       -998
 T2-number-of-boxes                    2

 t2 file size   =            18050
 t2 file name   = ./H2O.t2
 t2 file handle =       -996
CCSD iterations
 ---------------------------------------------------------
 Iter          Residuum       Correlation     Cpu    Wall 
 ---------------------------------------------------------
NEW TASK SCHEDULING
CCSD_T1_NTS --- OK
CCSD_T2_NTS --- OK
    1   0.9674644098288  -0.3701287527055     0.0     0.0
    2   1.7827105892226   0.0816900749449     0.0     0.0
    3   3.4289631451554  -0.7714377575167     0.0     0.0
    4   6.8843399490489   0.8298513132231     0.0     0.0
    5  11.4758620844768  -2.2167941591853     0.0     0.0
 MICROCYCLE DIIS UPDATE:                    5                    5
    6   0.0800356235433  -0.2042271036514     0.0     0.0
    7   0.1387082127469  -0.2303025565958     0.0     0.0
    8   0.2907319098371  -0.1707080217568     0.0     0.0
    9   0.6175449288353  -0.2452748915557     0.0     0.0
   10   1.2193385192913   0.1366508461593     0.0     0.0
 MICROCYCLE DIIS UPDATE:                   10                    5
   11   0.0073113094733  -0.2160849661626     0.0     0.0
   12   0.0095589209558  -0.2151434747131     0.0     0.0
   13   0.0206687250401  -0.2170352649325     0.0     0.0
   14   0.0474497561589  -0.2119704845051     0.0     0.0
   15   0.1094622785304  -0.2207019077751     0.0     0.0
 MICROCYCLE DIIS UPDATE:                   15                    5
   16   0.0005084348228  -0.2158305585422     0.0     0.0
   17   0.0004542350635  -0.2158435636503     0.0     0.0
   18   0.0007439038538  -0.2158320233706     0.0     0.0
   19   0.0016245198386  -0.2158443477822     0.0     0.0
   20   0.0036576364150  -0.2158721214074     0.0     0.0
 MICROCYCLE DIIS UPDATE:                   20                    5
   21   0.0000819222523  -0.2158496585364     0.0     0.0
   22   0.0000747400326  -0.2158375331738     0.0     0.0
   23   0.0001218813963  -0.2158553043535     0.0     0.0
   24   0.0002509603532  -0.2158221855983     0.0     0.0
   25   0.0005467875987  -0.2158846824226     0.0     0.0
 MICROCYCLE DIIS UPDATE:                   25                    5
   26   0.0000143570937  -0.2158427626177     0.0     0.0
   27   0.0000160393857  -0.2158446762738     0.0     0.0
   28   0.0000299897470  -0.2158410958948     0.0     0.0
   29   0.0000641651789  -0.2158484904126     0.0     0.0
   30   0.0001411316937  -0.2158341270625     0.0     0.0
 MICROCYCLE DIIS UPDATE:                   30                    5
   31   0.0000024959811  -0.2158438275043     0.0     0.0
   32   0.0000021732579  -0.2158434676121     0.0     0.0
   33   0.0000036022104  -0.2158439885660     0.0     0.0
   34   0.0000074718100  -0.2158430032233     0.0     0.0
   35   0.0000163325565  -0.2158448867041     0.0     0.0
 MICROCYCLE DIIS UPDATE:                   35                    5
   36   0.0000004495065  -0.2158436178875     0.0     0.0
   37   0.0000005480449  -0.2158436838488     0.0     0.0
   38   0.0000010558250  -0.2158435568488     0.0     0.0
   39   0.0000022706459  -0.2158438163871     0.0     0.0
   40   0.0000050050260  -0.2158433127116     0.0     0.0
 MICROCYCLE DIIS UPDATE:                   40                    5
   41   0.0000000811267  -0.2158436511674     0.0     0.0
 -----------------------------------------------------------------
 Iterations converged
 CCSD correlation energy / hartree =        -0.215843651167448
 CCSD total energy / hartree       =       -76.236436139893073

 Singles contributions

 Doubles contributions
     6a   (alpha)     7a   (alpha) ---     4a   (alpha)     5a   (alpha)        0.0202205363
     6a   (alpha)     7a   (alpha) ---     5a   (alpha)     4a   (alpha)       -0.0202205363
     6a   (alpha)     8a   (alpha) ---     3a   (alpha)     5a   (alpha)        0.0237937163
     6a   (alpha)     8a   (alpha) ---     5a   (alpha)     3a   (alpha)       -0.0237937163
     7a   (alpha)     6a   (alpha) ---     4a   (alpha)     5a   (alpha)       -0.0202205363
     7a   (alpha)     6a   (alpha) ---     5a   (alpha)     4a   (alpha)        0.0202205363
     7a   (alpha)     8a   (alpha) ---     3a   (alpha)     4a   (alpha)        0.0234584385
     7a   (alpha)     8a   (alpha) ---     4a   (alpha)     3a   (alpha)       -0.0234584385
     8a   (alpha)     6a   (alpha) ---     3a   (alpha)     5a   (alpha)       -0.0237937163
     8a   (alpha)     6a   (alpha) ---     5a   (alpha)     3a   (alpha)        0.0237937163
     8a   (alpha)     7a   (alpha) ---     3a   (alpha)     4a   (alpha)       -0.0234584385
     8a   (alpha)     7a   (alpha) ---     4a   (alpha)     3a   (alpha)        0.0234584385
     6a   (alpha)     6a   (beta ) ---     5a   (alpha)     5a   (beta )       -0.0818839778
     6a   (alpha)     7a   (beta ) ---     4a   (alpha)     4a   (beta )       -0.0208126587
     6a   (alpha)     7a   (beta ) ---     5a   (alpha)     4a   (beta )       -0.0237363179
     6a   (alpha)     8a   (beta ) ---     5a   (alpha)     3a   (beta )       -0.0328560952
     7a   (alpha)     6a   (beta ) ---     4a   (alpha)     4a   (beta )       -0.0208126587
     7a   (alpha)     6a   (beta ) ---     4a   (alpha)     5a   (beta )       -0.0237363179
     7a   (alpha)     7a   (beta ) ---     4a   (alpha)     4a   (beta )       -0.0740067212
     7a   (alpha)     7a   (beta ) ---     4a   (alpha)     5a   (beta )        0.0224167989
     7a   (alpha)     7a   (beta ) ---     5a   (alpha)     4a   (beta )        0.0224167989
     7a   (alpha)     8a   (beta ) ---     4a   (alpha)     3a   (beta )       -0.0325014267
     8a   (alpha)     6a   (beta ) ---     3a   (alpha)     5a   (beta )       -0.0328560952
     8a   (alpha)     7a   (beta ) ---     3a   (alpha)     4a   (beta )       -0.0325014267
     8a   (alpha)     8a   (beta ) ---     3a   (alpha)     3a   (beta )       -0.0511574836
 Ground state specification:
 exp(T)|Ref>~(1+T)|Ref>
 ------- a(p)+/a(q) strings ----------

 singles norm

 doubles norm

 Reference string
   1.0000000000000000      :(1a)+ (2a)+ (3a)+ (4a)+ (5a)+ (1b)+ (2b)+ (3b)+ (4b)+ (5b)+ |0>

 Singles strings

 Doubles strings
 -------------------------------------
 enrep_tce =    8.8779934400129061     
  EHF(total)         =       -76.02059249
  Shift (HFtot-HFA)  =         0.00000000
 ALL OCCUPIED ORBITALS ARE ACTIVE IN DUCC --> NO SHIFT
 Number of active orbitals                    8
 Number of active alpha electrons                    5
 Number of active beta electrons                    5
  nos                    10
  nvs                    38
 noas                     5
 nobs                     5
 nvas                    19
 nvbs                    19
 nactv                     3
 DUCC MODEL =                     6
 NONHF =  T
 F-T1 correlation    =   -2.4128162113092610E-005
 V-T1-T1 correlation =   -1.2918771477795561E-006
 V-T2 correlation    =  -0.21581823112816453     
 Total correlation   =  -0.21584365116742540     
 F-T1(Ext) correlation         =    3.6532771969909046E-006
 V-T1(Ext)-T1(Ext) correlation =    1.3053467159979293E-006
 V-T2(Ext) correlation         =  -0.12965819171094423     
 Total Ext correlation         =  -0.12965323308703125     
1-BODY TIME =    1.287 SECONDS.
  HHHH TIME =    1.678 SECONDS.
  PPPP TIME =    0.026 SECONDS.
  HHHP TIME =    0.534 SECONDS.
  PPPH TIME =    0.076 SECONDS.
  HPHP TIME =    0.287 SECONDS.
  HHPP TIME =    0.265 SECONDS.
 ONE-BODY UNITARY CHECK
 TWO-BODY UNITARY CHECK
                    1                    1                    1                    2  -2.5512464448337530E-012
                    1                    1                    1                    4   7.8536456498706949E-012
                    1                    1                    1                    5   4.8176827116225307E-012
                    1                    1                    2                    1   2.5512468655261804E-012
                    1                    1                    2                    4  -3.9351288294193815E-011
                    1                    1                    2                    5  -2.5046259124116385E-011
                    1                    1                    4                    1  -7.8536467350019464E-012
                    1                    1                    4                    2   3.9351288284614029E-011
                    1                    1                    5                    1  -4.8176837810325619E-012
                    1                    1                    5                    2   2.5046259085712199E-011
                    1                    2                    1                    1   2.5512464448337530E-012
                    1                    2                    1                    4  -4.0056456415693553E-011
                    1                    2                    1                    5  -2.4463396586238417E-011
                    1                    2                    2                    1  -3.9375169791355802E-011
                    1                    2                    2                    2   7.0145443335497837E-011
                    1                    2                    2                    4   3.2477808636910410E-010
                    1                    2                    2                    5   2.0076600278084999E-010
                    1                    2                    3                    3  -1.3022238979069638E-011
                    1                    2                    4                    1   3.8800717847009558E-011
                    1                    2                    4                    2  -2.7260825020969381E-010
                    1                    2                    4                    4  -1.5391783044892009E-011
                    1                    2                    4                    5  -1.4940803062181061E-011
                    1                    2                    5                    1   2.4882522257907436E-011
                    1                    2                    5                    2  -1.7573977689755438E-010
                    1                    2                    5                    4  -2.9522144206665197E-011
                    1                    2                    5                    5   6.0493852521304877E-012
                    1                    3                    2                    3  -2.2019496816183537E-010
                    1                    3                    3                    1   1.2781709024523025E-010
                    1                    3                    3                    2  -8.9679703853956516E-010
                    1                    3                    3                    4   6.1413927415765457E-010
                    1                    3                    3                    5   3.8369463856158248E-010
                    1                    3                    4                    3  -2.9985327415493757E-010
                    1                    3                    5                    3  -1.8749871273648910E-010
                    1                    4                    1                    1  -7.8536456498706949E-012
                    1                    4                    1                    2   4.0056456415693553E-011
                    1                    4                    1                    5  -1.6559947857430757E-012
                    1                    4                    2                    1   9.3184040345084540E-011
                    1                    4                    2                    2  -4.3172448187570818E-010
                    1                    4                    2                    4  -8.2264702428586078E-011
                    1                    4                    2                    5   2.2311442786620422E-011
                    1                    4                    3                    3   1.2739966220139233E-011
                    1                    4                    4                    1   1.5596302027631737E-011
                    1                    4                    4                    2  -1.4500012605542234E-010
                    1                    4                    4                    4   5.2232531707274040E-011
                    1                    4                    4                    5   3.0641768809791525E-010
                    1                    4                    5                    1  -2.9147174257504460E-011
                    1                    4                    5                    2   2.2131032710636170E-010
                    1                    4                    5                    4  -2.2758037294956512E-010
                    1                    4                    5                    5  -4.7115512188771025E-011
                    1                    5                    1                    1  -4.8176827116225307E-012
                    1                    5                    1                    2   2.4463396586238417E-011
                    1                    5                    1                    4   1.6559947857430757E-012
                    1                    5                    2                    1   5.9424669178465006E-011
                    1                    5                    2                    2  -2.7996753774606354E-010
                    1                    5                    2                    4   9.4016713630875465E-012
                    1                    5                    2                    5  -9.3347947861116554E-011
                    1                    5                    3                    3   8.1443542664700531E-012
                    1                    5                    4                    1  -3.0479396784244273E-011
                    1                    5                    4                    2   2.2187500597100999E-010
                    1                    5                    4                    4  -2.0476936203895063E-011
                    1                    5                    4                    5  -3.6317049020850867E-010
                    1                    5                    5                    1   3.5179859025902260E-011
                    1                    5                    5                    2  -2.8359970491789732E-010
                    1                    5                    5                    4   4.4623050220182758E-010
                    1                    5                    5                    5   1.7206007758596289E-011
                    1                    6                    1                    7  -2.3506946389417749E-011
                    1                    6                    1                    9   9.7494928796848512E-012
                    1                    6                    1                   10   5.5052767899965716E-012
                    1                    6                    2                    6  -2.8529290041490185E-011
                    1                    6                    2                    7   1.0071624090279840E-010
                    1                    6                    2                    9  -1.0481736767604943E-010
                    1                    6                    2                   10  -5.2790309775473110E-011
                    1                    6                    3                    8  -1.0428266930539998E-010
                    1                    6                    4                    7   3.7634835352295948E-011
                    1                    6                    4                    9  -2.0546227913476045E-011
                    1                    6                    4                   10   2.2930424486283796E-011
                    1                    6                    5                    7   2.1866243082695191E-011
                    1                    6                    5                    9   3.2408044130238789E-011
                    1                    6                    5                   10  -4.7431846644796494E-011
                    1                    6                    6                    2   2.0955653878829139E-011
                    1                    6                    6                    4  -1.8958168368499173E-012
                    1                    6                    7                    1   3.1080582552078795E-011
                    1                    6                    7                    2  -1.0071624090279840E-010
                    1                    6                    7                    4   6.5466076787021321E-011
                    1                    6                    7                    5   2.7744049353913003E-011
                    1                    6                    8                    3   1.0428266930539998E-010
                    1                    6                    9                    1  -7.9013601217425844E-012
                    1                    6                    9                    2   1.7164557535725988E-012
                    1                    6                    9                    4   2.0546227913476045E-011
                    1                    6                    9                    5  -2.3753725982705864E-011
                    1                    6                   10                    1  -5.0505849502613387E-012
                    1                    6                   10                    2   3.1800174472851328E-012
                    1                    6                   10                    4  -3.1584743501178458E-011
                    1                    6                   10                    5   4.7431846644796494E-011
                    1                    7                    1                    6   2.3506946389417749E-011
                    1                    7                    1                    9  -2.5795043184784205E-011
                    1                    7                    1                   10  -1.6314133204076153E-011
                    1                    7                    2                    6  -7.4531665561483607E-012
                    1                    7                    2                    7   5.0733550346904188E-010
                    1                    7                    2                    9   9.5581429489927094E-011
                    1                    7                    2                   10   8.1555892464738045E-011
                    1                    7                    3                    8   5.6510669060871876E-010
                    1                    7                    4                    6   4.7594712893062052E-011
                    1                    7                    4                    7  -7.5336999139086203E-010
                    1                    7                    4                    9   2.4525960776178302E-010
                    1                    7                    4                   10  -7.0672536399418728E-011
                    1                    7                    5                    6   2.8696144419027014E-011
                    1                    7                    5                    7  -4.4914640409676743E-010
                    1                    7                    5                    9  -8.7896311648343051E-011
                    1                    7                    5                   10   3.3291284659564546E-010
                    1                    7                    6                    1  -2.0955653878829139E-011
                    1                    7                    6                    4  -1.4261407593058051E-011
                    1                    7                    6                    5  -8.1492749831255096E-012
                    1                    7                    7                    1  -3.1919800136392951E-011
                    1                    7                    7                    2  -4.3719006886933087E-010
                    1                    7                    7                    4   2.2919680216226812E-010
                    1                    7                    7                    5   1.1921011747184629E-010
                    1                    7                    8                    3  -5.7812893014541622E-010
                    1                    7                    9                    1  -8.7940054543933499E-012
                    1                    7                    9                    2   4.8076171212454999E-010
                    1                    7                    9                    4  -2.6065139283049099E-010
                    1                    7                    9                    5   5.5731725766457185E-011
                    1                    7                   10                    1  -3.8136525187804082E-012
                    1                    7                   10                    2   2.7340661614035089E-010
                    1                    7                   10                    4   5.8374175068362510E-011
                    1                    7                   10                    5  -3.2686346511379138E-010
                    1                    8                    2                    8   2.5648213240747619E-010
                    1                    8                    3                    6  -2.8352032527267923E-011
                    1                    8                    3                    7   7.7486825289518890E-010
                    1                    8                    3                    9  -1.5526690176626001E-010
                    1                    8                    3                   10  -9.7025827476560078E-011
                    1                    8                    4                    8  -4.2115034853615341E-010
                    1                    8                    5                    8  -2.6319078036754484E-010
                    1                    8                    7                    3  -4.7667711791654632E-010
                    1                    8                    8                    1   1.5616885562508287E-010
                    1                    8                    8                    2  -1.6716652714854341E-009
                    1                    8                    8                    4   7.6940613038742334E-010
                    1                    8                    8                    5   4.8072047037495125E-010
                    1                    8                    9                    3   1.2129711818298361E-010
                    1                    8                   10                    3   7.5692059391119226E-011
                    1                    9                    1                    6  -9.7494928796848512E-012
                    1                    9                    1                    7   2.5795043184784205E-011
                    1                    9                    1                   10  -1.1947977329729298E-012
                    1                    9                    2                    6   3.1398943558039183E-011
                    1                    9                    2                    7  -3.8673229592681158E-010
                    1                    9                    2                    9   3.6937328196096075E-012
                    1                    9                    2                   10  -3.5817133547250135E-011
                    1                    9                    3                    8  -4.6973358883151128E-010
                    1                    9                    4                    6  -1.9554816099720540E-011
                    1                    9                    4                    7   3.0764322166143554E-010
                    1                    9                    4                    9  -1.2459063442396556E-009
                    1                    9                    4                   10   1.4852242049070985E-010
                    1                    9                    5                    6  -1.1786879198366629E-011
                    1                    9                    5                    7   6.9341554416804674E-011
                    1                    9                    5                    9  -1.0445911193326940E-010
                    1                    9                    5                   10  -5.1249565355404592E-010
                    1                    9                    6                    1   1.8958307146377251E-012
                    1                    9                    6                    2   1.4261407159377182E-011
                    1                    9                    7                    1   6.1785114351120551E-011
                    1                    9                    7                    2  -4.4992184890929598E-011
                    1                    9                    7                    4  -8.5958492060389524E-011
                    1                    9                    7                    5   5.8128584844857611E-011
                    1                    9                    8                    3   4.8247355503155953E-010
                    1                    9                    9                    1   3.5150771182657081E-011
[...]
    8    1    3    8        0.0000002397
    8    2    3    1        0.0186026979
    8    2    3    2        0.0499796946
    8    2    3    3        0.0000004960
    8    2    3    4        0.0082302907
    8    2    3    5        0.0052336596
    8    2    3    6        0.0141316177
    8    2    3    7        0.0104797146
    8    2    3    8        0.0000004153
    8    3    3    1        0.0000001661
    8    3    3    2        0.0000006896
    8    3    3    3        0.1964607387
    8    3    3    4        0.0000001416
    8    3    3    5        0.0000000895
    8    3    3    6        0.0000003616
    8    3    3    7        0.0000002781
    8    3    3    8        0.1526514721
    8    4    3    1        0.0041642637
    8    4    3    2        0.0037037257
    8    4    3    3       -0.0000002714
    8    4    3    4        0.0066178839
    8    4    3    5        0.0012807295
    8    4    3    6        0.0081587821
    8    4    3    7        0.0162782681
    8    4    3    8       -0.0000001369
    8    5    3    1        0.0026435260
    8    5    3    2        0.0022558527
    8    5    3    3       -0.0000001684
    8    5    3    4        0.0012549912
    8    5    3    5        0.0052052732
    8    5    3    6        0.0156889738
    8    5    3    7       -0.0038512513
    8    5    3    8       -0.0000000799
    8    6    3    1        0.0079005437
    8    6    3    2        0.0301009351
    8    6    3    3        0.0000004324
    8    6    3    4        0.0164254693
    8    6    3    5        0.0265225216
    8    6    3    6        0.0194997309
    8    6    3    7        0.0026194538
    8    6    3    8        0.0000000830
    8    7    3    1        0.0059299993
    8    7    3    2        0.0224810521
    8    7    3    3        0.0000003205
    8    7    3    4        0.0279460623
    8    7    3    5       -0.0040203055
    8    7    3    6        0.0026598017
    8    7    3    7        0.0177275771
    8    7    3    8        0.0000000583
    8    8    3    1        0.0000001483
    8    8    3    2        0.0000012149
    8    8    3    3        0.6580123531
    8    8    3    4        0.0000002734
    8    8    3    5        0.0000001762
    8    8    3    6        0.0000003500
    8    8    3    7        0.0000002695
    8    8    3    8        0.1657385229
    8    1    4    1        0.0000000059
    8    1    4    2       -0.0000001523
    8    1    4    3        0.0090492122
    8    1    4    4       -0.0000001328
    8    1    4    5       -0.0000000354
    8    1    4    6       -0.0000000672
    8    1    4    7       -0.0000000713
    8    1    4    8        0.0048851767
    8    2    4    1       -0.0000000756
    8    2    4    2       -0.0000001924
    8    2    4    3        0.0074968023
    8    2    4    4       -0.0000001502
    8    2    4    5       -0.0000000212
    8    2    4    6       -0.0000001072
    8    2    4    7       -0.0000001182
    8    2    4    8        0.0055104896
    8    3    4    1       -0.0035887050
    8    3    4    2       -0.0012494652
    8    3    4    3        0.0000001307
    8    3    4    4        0.1386926566
    8    3    4    5        0.0047736210
    8    3    4    6        0.0406246541
    8    3    4    7        0.1067704968
    8    3    4    8       -0.0000001369
    8    4    4    1        0.0000000416
    8    4    4    2       -0.0000000259
    8    4    4    3        0.0059859377
    8    4    4    4       -0.0000003985
    8    4    4    5        0.0000000068
    8    4    4    6       -0.0000000684
    8    4    4    7       -0.0000001581
    8    4    4    8        0.0173759950
    8    5    4    1       -0.0000000042
    8    5    4    2        0.0000000049
    8    5    4    3        0.0012207966
    8    5    4    4       -0.0000001449
    8    5    4    5       -0.0000000420
    8    5    4    6       -0.0000000663
    8    5    4    7       -0.0000001553
    8    5    4    8        0.0013411292
    8    6    4    1        0.0000000074
    8    6    4    2       -0.0000001285
    8    6    4    3        0.0164545721
    8    6    4    4       -0.0000001298
    8    6    4    5       -0.0000000158
    8    6    4    6       -0.0000000169
    8    6    4    7       -0.0000000366
    8    6    4    8        0.0030379089
    8    7    4    1        0.0000000651
    8    7    4    2        0.0000000209
    8    7    4    3        0.0275027764
    8    7    4    4       -0.0000000055
    8    7    4    5       -0.0000000551
    8    7    4    6       -0.0000000142
    8    7    4    7        0.0000000064
    8    7    4    8        0.0061237997
    8    8    4    1       -0.0055911158
    8    8    4    2        0.0057419313
    8    8    4    3        0.0000002734
    8    8    4    4        0.5656241376
    8    8    4    5        0.0080178119
    8    8    4    6        0.0517647047
    8    8    4    7        0.1381004151
    8    8    4    8       -0.0000002791
    8    1    5    1        0.0000000048
    8    1    5    2       -0.0000000945
    8    1    5    3        0.0057392509
    8    1    5    4       -0.0000000354
    8    1    5    5       -0.0000000949
    8    1    5    6       -0.0000000649
    8    1    5    7       -0.0000000156
    8    1    5    8        0.0030909834
    8    2    5    1       -0.0000000471
    8    2    5    2       -0.0000001204
    8    2    5    3        0.0047685574
    8    2    5    4       -0.0000000212
    8    2    5    5       -0.0000001262
    8    2    5    6       -0.0000001081
    8    2    5    7       -0.0000000220
    8    2    5    8        0.0035508227
    8    3    5    1       -0.0022231943
    8    3    5    2       -0.0006917543
    8    3    5    3        0.0000000827
    8    3    5    4        0.0047794766
    8    3    5    5        0.1319618051
    8    3    5    6        0.1062357488
    8    3    5    7       -0.0392970334
    8    3    5    8       -0.0000000799
    8    4    5    1       -0.0000000039
    8    4    5    2        0.0000000043
    8    4    5    3        0.0012463176
    8    4    5    4        0.0000000083
    8    4    5    5       -0.0000002869
    8    4    5    6       -0.0000002187
    8    4    5    7        0.0000000433
    8    4    5    8        0.0013411292
    8    5    5    1        0.0000000450
    8    5    5    2       -0.0000000304
    8    5    5    3        0.0046202417
    8    5    5    4       -0.0000000444
    8    5    5    5       -0.0000002854
    8    5    5    6       -0.0000000487
    8    5    5    7        0.0000000587
    8    5    5    8        0.0161192272
    8    6    5    1        0.0000000665
    8    6    5    2        0.0000000409
    8    6    5    3        0.0260356512
    8    6    5    4       -0.0000000150
    8    6    5    5        0.0000000054
    8    6    5    6       -0.0000000027
    8    6    5    8        0.0059886703
    8    7    5    1       -0.0000000415
    8    7    5    2       -0.0000001504
    8    7    5    3       -0.0036449582
    8    7    5    4       -0.0000000561
    8    7    5    5       -0.0000001024
    8    7    5    6       -0.0000000411
    8    7    5    7       -0.0000000020
    8    7    5    8       -0.0015560246
    8    8    5    1       -0.0034882394
    8    8    5    2        0.0035828170
    8    8    5    3        0.0000001762
    8    8    5    4        0.0080178119
    8    8    5    5        0.5535907968
    8    8    5    6        0.1392217730
    8    8    5    7       -0.0522413069
    8    8    5    8       -0.0000001731
    8    1    6    1        0.0000000510
    8    1    6    2       -0.0000001349
    8    1    6    3        0.0100367641
    8    1    6    4       -0.0000000630
    8    1    6    5       -0.0000000557
    8    1    6    6       -0.0000001607
    8    1    6    7       -0.0000000499
    8    1    6    8        0.0113624196
    8    2    6    1       -0.0000000823
    8    2    6    2       -0.0000002844
    8    2    6    3        0.0144180177
    8    2    6    4       -0.0000001186
    8    2    6    5       -0.0000001464
    8    2    6    6       -0.0000001058
    8    2    6    7       -0.0000000783
    8    2    6    8        0.0100129667
    8    3    6    1       -0.0055922461
    8    3    6    2        0.0131894613
    8    3    6    3        0.0000003277
    8    3    6    4        0.0391241582
    8    3    6    5        0.1028614092
    8    3    6    6        0.1618812645
    8    3    6    7       -0.0049278108
    8    3    6    8        0.0000000830
    8    4    6    1        0.0000000171
    8    4    6    2       -0.0000000674
    8    4    6    3        0.0078882564
    8    4    6    4       -0.0000000574
    8    4    6    5       -0.0000002165
    8    4    6    6       -0.0000003153
    8    4    6    7       -0.0000000059
    8    4    6    8        0.0030379089
    8    5    6    1        0.0000000585
    8    5    6    2       -0.0000000365
    8    5    6    3        0.0151222236
    8    5    6    4       -0.0000000690
    8    5    6    5       -0.0000000348
    8    5    6    6       -0.0000002641
    8    5    6    7        0.0000000148
    8    5    6    8        0.0059886703
    8    6    6    1        0.0000000981
    8    6    6    2        0.0000000472
    8    6    6    3        0.0200371533
    8    6    6    4       -0.0000000211
    8    6    6    5       -0.0000000123
    8    6    6    6       -0.0000000082
    8    6    6    7       -0.0000000091
    8    6    6    8        0.0314542471
    8    7    6    1       -0.0000000313
    8    7    6    2       -0.0000001312
    8    7    6    3        0.0028320673
    8    7    6    4       -0.0000000159
    8    7    6    5       -0.0000000436
    8    7    6    6       -0.0000001314
    8    7    6    7        0.0000000294
    8    7    6    8        0.0064058962
    8    8    6    1       -0.0078166457
    8    8    6    2        0.0121927236
    8    8    6    3        0.0000003500
    8    8    6    4        0.0517647047
    8    8    6    5        0.1392217730
    8    8    6    6        0.5736409844
    8    8    6    7       -0.0046019694
    8    8    6    8        0.0000002526
    8    1    7    1        0.0000000372
    8    1    7    2       -0.0000001012
    8    1    7    3        0.0074984498
    8    1    7    4       -0.0000000620
    8    1    7    5       -0.0000000184
    8    1    7    6       -0.0000000500
    8    1    7    7       -0.0000001342
    8    1    7    8        0.0085149626
    8    2    7    1       -0.0000000623
    8    2    7    2       -0.0000002150
    8    2    7    3        0.0107162297
    8    2    7    4       -0.0000001551
    8    2    7    5       -0.0000000053
    8    2    7    6       -0.0000000782
    8    2    7    7       -0.0000000553
    8    2    7    8        0.0074299967
    8    3    7    1       -0.0041833550
    8    3    7    2        0.0095084840
    8    3    7    3        0.0000002536
    8    3    7    4        0.1033939228
    8    3    7    5       -0.0382636228
    8    3    7    6       -0.0049418171
    8    3    7    7        0.1660961293
    8    3    7    8        0.0000000583
    8    4    7    1        0.0000000589
    8    4    7    2       -0.0000000425
    8    4    7    3        0.0157954957
    8    4    7    4       -0.0000001497
    8    4    7    5        0.0000000394
    8    4    7    6       -0.0000000077
    8    4    7    7       -0.0000003767
    8    4    7    8        0.0061237997
    8    5    7    1       -0.0000000273
    8    5    7    2       -0.0000000366
    8    5    7    3       -0.0037086380
    8    5    7    4       -0.0000001534
    8    5    7    5        0.0000000668
    8    5    7    6        0.0000000176
    8    5    7    7       -0.0000001675
    8    5    7    8       -0.0015560246
    8    6    7    1       -0.0000000316
    8    6    7    2       -0.0000001298
    8    6    7    3        0.0027839241
    8    6    7    4       -0.0000000413
    8    6    7    5        0.0000000022
    8    6    7    6       -0.0000000095
    8    6    7    7       -0.0000001286
    8    6    7    8        0.0064058962
    8    7    7    1        0.0000001192
    8    7    7    2        0.0000001293
    8    7    7    3        0.0181529497
    8    7    7    4       -0.0000000022
    8    7    7    5       -0.0000000012
    8    7    7    6        0.0000000299
    8    7    7    7        0.0000000153
    8    7    7    8        0.0282399803
    8    8    7    1       -0.0058142420
    8    8    7    2        0.0086213169
    8    8    7    3        0.0000002695
    8    8    7    4        0.1381004151
    8    8    7    5       -0.0522413069
    8    8    7    6       -0.0046019694
    8    8    7    7        0.5799756701
    8    8    7    8        0.0000001814
    8    1    8    1        0.0443881866
    8    1    8    2        0.0239360594
    8    1    8    3        0.0000002492
    8    1    8    4        0.0047364903
    8    1    8    5        0.0029983111
    8    1    8    6        0.0113292542
    8    1    8    7        0.0084901688
    8    1    8    8        0.0000002866
    8    2    8    1        0.0239360594
    8    2    8    2        0.0497981849
    8    2    8    3        0.0000003087
    8    2    8    4        0.0062326644
    8    2    8    5        0.0040233328
    8    2    8    6        0.0105364826
    8    2    8    7        0.0078206236
    8    2    8    8        0.0000003679
    8    3    8    1        0.0000002492
    8    3    8    2        0.0000003087
    8    3    8    3        0.1521359725
    8    3    8    4       -0.0000001546
    8    3    8    5       -0.0000000917
    8    3    8    6        0.0000000735
    8    3    8    7        0.0000000514
    8    3    8    8        0.1657385229
    8    4    8    1        0.0047364903
    8    4    8    2        0.0062326644
    8    4    8    3       -0.0000001546
    8    4    8    4        0.0167927129
    8    4    8    5        0.0013888698
    8    4    8    6        0.0029063770
    8    4    8    7        0.0059379999
    8    4    8    8       -0.0000002791
    8    5    8    1        0.0029983111
    8    5    8    2        0.0040233328
    8    5    8    3       -0.0000000917
    8    5    8    4        0.0013888698
    8    5    8    5        0.0156687052
    8    5    8    6        0.0057949854
    8    5    8    7       -0.0015411453
    8    5    8    8       -0.0000001731
    8    6    8    1        0.0113292542
    8    6    8    2        0.0105364826
    8    6    8    3        0.0000000735
    8    6    8    4        0.0029063770
    8    6    8    5        0.0057949854
    8    6    8    6        0.0314462843
    8    6    8    7        0.0063853905
    8    6    8    8        0.0000002526
    8    7    8    1        0.0084901688
    8    7    8    2        0.0078206236
    8    7    8    3        0.0000000514
    8    7    8    4        0.0059379999
    8    7    8    5       -0.0015411453
    8    7    8    6        0.0063853905
    8    7    8    7        0.0282446593
    8    7    8    8        0.0000001814
    8    8    8    1        0.0000002866
    8    8    8    2        0.0000003679
    8    8    8    3        0.1657385229
    8    8    8    4       -0.0000002791
    8    8    8    5       -0.0000001731
    8    8    8    6        0.0000002526
    8    8    8    7        0.0000001814
    8    8    8    8        0.6082520356
 end_two_electron_integrals

 Parallel integral file used       1 records with       0 large values


 Task  times  cpu:        4.8s     wall:        5.0s


                                NWChem Input Module
                                -------------------


 Summary of allocated global arrays
-----------------------------------
  No active global arrays


MA_summarize_allocated_blocks: starting scan ...
MA_summarize_allocated_blocks: scan completed: 0 heap blocks, 0 stack blocks
MA usage statistics:

	allocation statistics:
					      heap	     stack
					      ----	     -----
	current number of blocks	         0	         0
	maximum number of blocks	        18	        42
	current total bytes		         0	         0
	maximum total bytes		   2175760	 141357496
	maximum total K-bytes		      2176	    141358
	maximum total M-bytes		         3	       142


                                     CITATION
                                     --------
                Please cite the following reference when publishing
                           results obtained with NWChem:

          E. Apra, E. J. Bylaska, W. A. de Jong, N. Govind, K. Kowalski,
       T. P. Straatsma, M. Valiev, H. J. J. van Dam, Y. Alexeev, J. Anchell,
       V. Anisimov, F. W. Aquino, R. Atta-Fynn, J. Autschbach, N. P. Bauman,
     J. C. Becca, D. E. Bernholdt, K. Bhaskaran-Nair, S. Bogatko, P. Borowski,
         J. Boschen, J. Brabec, A. Bruner, E. Cauet, Y. Chen, G. N. Chuev,
      C. J. Cramer, J. Daily, M. J. O. Deegan, T. H. Dunning Jr., M. Dupuis,
   K. G. Dyall, G. I. Fann, S. A. Fischer, A. Fonari, H. Fruchtl, L. Gagliardi,
      J. Garza, N. Gawande, S. Ghosh, K. Glaesemann, A. W. Gotz, J. Hammond,
       V. Helms, E. D. Hermes, K. Hirao, S. Hirata, M. Jacquelin, L. Jensen,
   B. G. Johnson, H. Jonsson, R. A. Kendall, M. Klemm, R. Kobayashi, V. Konkov,
      S. Krishnamoorthy, M. Krishnan, Z. Lin, R. D. Lins, R. J. Littlefield,
      A. J. Logsdail, K. Lopata, W. Ma, A. V. Marenich, J. Martin del Campo,
   D. Mejia-Rodriguez, J. E. Moore, J. M. Mullin, T. Nakajima, D. R. Nascimento,
    J. A. Nichols, P. J. Nichols, J. Nieplocha, A. Otero-de-la-Roza, B. Palmer,
    A. Panyala, T. Pirojsirikul, B. Peng, R. Peverati, J. Pittner, L. Pollack,
   R. M. Richard, P. Sadayappan, G. C. Schatz, W. A. Shelton, D. W. Silverstein,
   D. M. A. Smith, T. A. Soares, D. Song, M. Swart, H. L. Taylor, G. S. Thomas,
            V. Tipparaju, D. G. Truhlar, K. Tsemekhman, T. Van Voorhis,
      A. Vazquez-Mayagoitia, P. Verma, O. Villa, A. Vishnu, K. D. Vogiatzis,
        D. Wang, J. H. Weare, M. J. Williamson, T. L. Windus, K. Wolinski,
        A. T. Wong, Q. Wu, C. Yang, Q. Yu, M. Zacharias, Z. Zhang, Y. Zhao,
                                and R. J. Harrison
                        "NWChem: Past, present, and future
                         J. Chem. Phys. 152, 184102 (2020)
                               doi:10.1063/5.0004997

                                      AUTHORS
                                      -------
  E. Apra, E. J. Bylaska, N. Govind, K. Kowalski, M. Valiev, D. Mejia-Rodriguez,
       A. Kunitsa, N. P. Bauman, A. Panyala, W. A. de Jong, T. P. Straatsma,
        H. J. J. van Dam, D. Wang, T. L. Windus, J. Hammond, J. Autschbach,
    K. Bhaskaran-Nair, J. Brabec, K. Lopata, S. A. Fischer, S. Krishnamoorthy,
     M. Jacquelin, W. Ma, M. Klemm, O. Villa, Y. Chen, V. Anisimov, F. Aquino,
    S. Hirata, M. T. Hackler, Eric Hermes, L. Jensen, J. E. Moore, J. C. Becca,
      V. Konjkov, T. Risthaus, M. Malagoli, A. Marenich, A. Otero-de-la-Roza,
        J. Mullin, P. Nichols, R. Peverati, J. Pittner, Y. Zhao, P.-D. Fan,
        A. Fonari, M. J. Williamson, R. J. Harrison, J. R. Rehr, M. Dupuis,
     D. Silverstein, D. M. A. Smith, J. Nieplocha, V. Tipparaju, M. Krishnan,
     B. E. Van Kuiken, A. Vazquez-Mayagoitia, M. Swart, Q. Wu, T. Van Voorhis,
     A. A. Auer, M. Nooijen, L. D. Crosby, E. Brown, G. Cisneros, G. I. Fann,
   H. Fruchtl, J. Garza, K. Hirao, R. A. Kendall, J. A. Nichols, K. Tsemekhman,
    K. Wolinski, J. Anchell, D. E. Bernholdt, P. Borowski, T. Clark, D. Clerc,
   H. Dachsel, M. J. O. Deegan, K. Dyall, D. Elwood, E. Glendening, M. Gutowski,
   A. C. Hess, J. Jaffe, B. G. Johnson, J. Ju, R. Kobayashi, R. Kutteh, Z. Lin,
   R. Littlefield, X. Long, B. Meng, T. Nakajima, S. Niu, L. Pollack, M. Rosing,
   K. Glaesemann, G. Sandrone, M. Stave, H. Taylor, G. Thomas, J. H. van Lenthe,
                               A. T. Wong, Z. Zhang.

 Total times  cpu:        7.4s     wall:        9.9s
