 argument  1 = input.nw
  NWChem w/ OpenMP: maximum threads =    1



============================== echo of input deck ==============================
 echo
 start H2O
 title "H2O"

 memory total 24 gb

 geometry units bohr
 symmetry c1
        O  0.00000000  0.00000000  0.00000000
        H  0.00000000  1.954057  0.00000000
        H  1.72558000 -0.64860000  0.00000000
 end

 basis spherical
   * library cc-pVDZ
 end

 mcscf
   active  8
   actelec 10
   multiplicity 1
   maxiter 40
   vectors input h2o.mos
   vectors output h2o.mos
 end

 task mcscf

 scf
   vectors input h2o.mos
   vectors output h2o-trash.mos
   noscf
 end

 tce
   2eorb
   2emet 13
   ccsd
   maxiter 300
 end

# set tce:print_integrals T
# set tce:qorb 8
# set tce:qela 5
# set tce:qelb 5

 set tce:qducc T
 set tce:nactv 3
 set tce:nonhf T
 set tce:ducc_model 6

 set tce:printtol 0.02

 task tce
================================================================================


                                         
                                         


             Northwest Computational Chemistry Package (NWChem) 7.0.1
             --------------------------------------------------------


                    Environmental Molecular Sciences Laboratory
                       Pacific Northwest National Laboratory
                                Richland, WA 99352

                              Copyright (c) 1994-2020
                       Pacific Northwest National Laboratory
                            Battelle Memorial Institute

             NWChem is an open-source computational chemistry package
                        distributed under the terms of the
                      Educational Community License (ECL) 2.0
             A copy of the license is included with this distribution
                              in the LICENSE.TXT file

                                  ACKNOWLEDGMENT
                                  --------------

            This software and its documentation were developed at the
            EMSL at Pacific Northwest National Laboratory, a multiprogram
            national laboratory, operated for the U.S. Department of Energy
            by Battelle under Contract Number DE-AC05-76RL01830. Support
            for this work was provided by the Department of Energy Office
            of Biological and Environmental Research, Office of Basic
            Energy Sciences, and the Office of Advanced Scientific Computing.


           Job information
           ---------------

    hostname        = WE46210
    program         = /home/baum612/code/nwchem/bin/LINUX64/nwchem
    date            = Wed Sep  4 02:19:40 2024

    compiled        = Wed_Sep_04_02:00:17_2024
    source          = /home/baum612/code/nwchem
    nwchem branch   = 7.0.0
    nwchem revision = nwchem_on_git-4191-g39d87d64de
    ga revision     = 5.8.1
    use scalapack   = F
    input           = input.nw
    prefix          = H2O.
    data base       = ./H2O.db
    status          = startup
    nproc           =        1
    time left       =     -1s



           Memory information
           ------------------

    heap     =  805306366 doubles =   6144.0 Mbytes
    stack    =  805306363 doubles =   6144.0 Mbytes
    global   = 1610612736 doubles =  12288.0 Mbytes (distinct from heap & stack)
    total    = 3221225465 doubles =  24576.0 Mbytes
    verify   = yes
    hardfail = no 


           Directory information
           ---------------------

  0 permanent = .
  0 scratch   = .




                                NWChem Input Module
                                -------------------


                                        H2O
                                        ---
 Turning off AUTOSYM since
 SYMMETRY directive was detected!


          ------
          auto-z
          ------
  no constraints, skipping    0.0000000000000000     
  no constraints, skipping    0.0000000000000000     


                             Geometry "geometry" -> ""
                             -------------------------

 Output coordinates in a.u. (scale by  1.000000000 to convert to a.u.)

  No.       Tag          Charge          X              Y              Z
 ---- ---------------- ---------- -------------- -------------- --------------
    1 O                    8.0000    -0.17255800    -0.13054570     0.00000000
    2 H                    1.0000    -0.17255800     1.82351130     0.00000000
    3 H                    1.0000     1.55302200    -0.77914570     0.00000000

      Atomic Mass 
      ----------- 

      O                 15.994910
      H                  1.007825


 Effective nuclear repulsion energy (a.u.)       8.7539678045

            Nuclear Dipole moment (a.u.) 
            ----------------------------
        X                 Y               Z
 ---------------- ---------------- ----------------
    -0.0000000000     0.0000000000     0.0000000000



                                Z-matrix (autoz)
                                -------- 

 Units are Angstrom for bonds and degrees for angles

      Type          Name      I     J     K     L     M      Value
      ----------- --------  ----- ----- ----- ----- ----- ----------
    1 Stretch                  1     2                       1.03404
    2 Stretch                  1     3                       0.97551
    3 Bend                     2     1     3               110.59992


            XYZ format geometry
            -------------------
     3
 geometry
 O                    -0.09131377    -0.06908181     0.00000000
 H                    -0.09131377     0.96496069     0.00000000
 H                     0.82182391    -0.41230618     0.00000000

 ==============================================================================
                                internuclear distances
 ------------------------------------------------------------------------------
       center one      |      center two      | atomic units |       a.u.
 ------------------------------------------------------------------------------
    2 H                |   1 O                |     1.95406  |     1.95406
    3 H                |   1 O                |     1.84345  |     1.84345
 ------------------------------------------------------------------------------
                         number of included internuclear distances:          2
 ==============================================================================



 ==============================================================================
                                 internuclear angles
 ------------------------------------------------------------------------------
        center 1       |       center 2       |       center 3       |  degrees
 ------------------------------------------------------------------------------
    2 H                |   1 O                |   3 H                |   110.60
 ------------------------------------------------------------------------------
                            number of included internuclear angles:          1
 ==============================================================================





 Summary of "ao basis" -> "" (spherical)
 ------------------------------------------------------------------------------
       Tag                 Description            Shells   Functions and Types
 ---------------- ------------------------------  ------  ---------------------
 *                          cc-pVDZ                   on all atoms 


                      Basis "ao basis" -> "ao basis" (spherical)
                      -----
  O (Oxygen)
  ----------
            Exponent  Coefficients 
       -------------- ---------------------------------------------------------
  1 S  1.17200000E+04  0.000710
  1 S  1.75900000E+03  0.005470
  1 S  4.00800000E+02  0.027837
  1 S  1.13700000E+02  0.104800
  1 S  3.70300000E+01  0.283062
  1 S  1.32700000E+01  0.448719
  1 S  5.02500000E+00  0.270952
  1 S  1.01300000E+00  0.015458

  2 S  1.17200000E+04 -0.000160
  2 S  1.75900000E+03 -0.001263
  2 S  4.00800000E+02 -0.006267
  2 S  1.13700000E+02 -0.025716
  2 S  3.70300000E+01 -0.070924
  2 S  1.32700000E+01 -0.165411
  2 S  5.02500000E+00 -0.116955
  2 S  1.01300000E+00  0.557368

  3 S  3.02300000E-01  1.000000

  4 P  1.77000000E+01  0.043018
  4 P  3.85400000E+00  0.228913
  4 P  1.04600000E+00  0.508728

  5 P  2.75300000E-01  1.000000

  6 D  1.18500000E+00  1.000000

  H (Hydrogen)
  ------------
            Exponent  Coefficients 
       -------------- ---------------------------------------------------------
  1 S  1.30100000E+01  0.019685
  1 S  1.96200000E+00  0.137977
  1 S  4.44600000E-01  0.478148

  2 S  1.22000000E-01  1.000000

  3 P  7.27000000E-01  1.000000



 Summary of "ao basis" -> "ao basis" (spherical)
 ------------------------------------------------------------------------------
       Tag                 Description            Shells   Functions and Types
 ---------------- ------------------------------  ------  ---------------------
 O                          cc-pVDZ                  6       14   3s2p1d
 H                          cc-pVDZ                  3        5   2s1p



                            NWChem Direct MCSCF Module
                            --------------------------


                                        H2O


     -----------------------------------
       Basis functions:             24
       Inactive shells:              0
       Active shells:                8
       Active electrons:            10
       Symmetry:                    a       
       Multiplicity:                 1
       Orbital rotations:          128
     -----------------------------------

     -----------------------------------
       E2 extrapolation:             F
       Conjugacy:                    T
       Micro CI relax:               T
       Canonical orbitals:           T
       Maximum iterations:          40
       Converge threshold:    1.00E-04
       Conjugacy resets:            20
       Initial levelshift:        0.10
     -----------------------------------

 Loading old vectors from job with title :

H2O


   input molecular orbitals = ./h2o.mos
  output molecular orbtials = ./h2o.mos

       No. of determinants:          3136


  Starting Orbital Energies
   -20.548958    -1.320276    -0.710772    -0.563673    -0.509060    -0.028018
    -0.025414    -0.014070     0.472160     0.514489     1.037431     1.093938
     1.448097     1.493931     1.694012     1.853852     1.867714     2.247869
     2.350404     3.206664     3.319201     3.403290     3.846654     4.024806

  Orbital Symmetry Irreps
a    a    a    a    a    a    a    a    a    a    a    a    a    a    a   
a    a    a    a    a    a    a    a    a   

 #quartets = 3.081D+03 #integrals = 2.131D+04 #direct =  0.0% #cached =100.0%


 Integral file          = ./H2O.aoints.0
 Record size in doubles =  65536        No. of integs per rec  =  43688
 Max. records in memory =      4        Max. records in file   = 232373
 No. of bits per label  =      8        No. of bits per value  =     64




          %%%%% MacroIteration   1 %%%%%


          Number of sigma calls:       15
                       o<<<<< (aa):             0.00
                       o<<<<< (bb):             0.00
                       o<<<<< (ab):             0.04
                       o<<<<< (total)           0.04
                       o<<<<< (aa) ff           0.00
                       o<<<<< (aa) gop          0.00
                       o<<<<< (aa) dot          0.00
                       o<<<<< (ab) str          0.00
                       o<<<<< (ab) gath         0.00
                       o<<<<< (ab) dotab        0.00
                       o<<<<< (ab) scat         0.00
                       o<<<<< (ab) sync         0.00
                       o<<<<< Density           0.01
                       o<<<<< Density one       0.00
                       o<<<<< Density two       0.00
                       o<<<<< Density ab        0.01
                       o<<<<< Spin adapt        0.24
                       o<<<<< Symm adapt        0.00

                       o<<<<< (ab) max sync:      0.00

           >>>| Valence CI:            -84.864178033202
           >>>| MCSCF energy:          -76.110210228693
           >>>| Gradient norm:          0.893284664D-02

                              ----- Line search ------

        step       energy         lsg     num-lsg   num-lsh   lsrat    time
      ------- ---------------- --------- --------- --------- ------- --------
       0.0000     -76.11021023 -1.10D-05  0.00D+00  0.00D+00 0.0D+00      0.4

          Number of sigma calls:       14
                       o<<<<< (aa):             0.00
                       o<<<<< (bb):             0.00
                       o<<<<< (ab):             0.03
                       o<<<<< (total)           0.04
                       o<<<<< (aa) ff           0.00
                       o<<<<< (aa) gop          0.00
                       o<<<<< (aa) dot          0.00
                       o<<<<< (ab) str          0.00
                       o<<<<< (ab) gath         0.00
                       o<<<<< (ab) dotab        0.00
                       o<<<<< (ab) scat         0.00
                       o<<<<< (ab) sync         0.00
                       o<<<<< Density           0.00
                       o<<<<< Density one       0.00
                       o<<<<< Density two       0.00
                       o<<<<< Density ab        0.00
                       o<<<<< Spin adapt        0.30
                       o<<<<< Symm adapt        0.00

                       o<<<<< (ab) max sync:      0.00
       1.0000     -76.11021589 -3.47D-07 -3.47D-07  1.06D-05 3.2D-02      0.8
     --- Orbitals canonicalized ---



          %%%%% MacroIteration   2 %%%%%


          Number of sigma calls:       11
                       o<<<<< (aa):             0.00
                       o<<<<< (bb):             0.00
                       o<<<<< (ab):             0.03
                       o<<<<< (total)           0.03
                       o<<<<< (aa) ff           0.00
                       o<<<<< (aa) gop          0.00
                       o<<<<< (aa) dot          0.00
                       o<<<<< (ab) str          0.00
                       o<<<<< (ab) gath         0.00
                       o<<<<< (ab) dotab        0.00
                       o<<<<< (ab) scat         0.00
                       o<<<<< (ab) sync         0.00
                       o<<<<< Density           0.01
                       o<<<<< Density one       0.00
                       o<<<<< Density two       0.00
                       o<<<<< Density ab        0.00
                       o<<<<< Spin adapt        0.21
                       o<<<<< Symm adapt        0.00

                       o<<<<< (ab) max sync:      0.00

           >>>| Valence CI:            -84.864183693215
           >>>| MCSCF energy:          -76.110215888707
           >>>| Gradient norm:          0.645746105D-03
     --- Warning:    2 Hessian diagonals < 0.05 ---
     --- Conjugacy reset ---

                              ----- Line search ------

        step       energy         lsg     num-lsg   num-lsh   lsrat    time
      ------- ---------------- --------- --------- --------- ------- --------
       0.0000     -76.11021589 -8.91D-08  0.00D+00  0.00D+00 0.0D+00      1.1

          Number of sigma calls:        9
                       o<<<<< (aa):             0.00
                       o<<<<< (bb):             0.00
                       o<<<<< (ab):             0.03
                       o<<<<< (total)           0.03
                       o<<<<< (aa) ff           0.00
                       o<<<<< (aa) gop          0.00
                       o<<<<< (aa) dot          0.00
                       o<<<<< (ab) str          0.00
                       o<<<<< (ab) gath         0.00
                       o<<<<< (ab) dotab        0.00
                       o<<<<< (ab) scat         0.00
                       o<<<<< (ab) sync         0.00
                       o<<<<< Density           0.01
                       o<<<<< Density one       0.00
                       o<<<<< Density two       0.00
                       o<<<<< Density ab        0.01
                       o<<<<< Spin adapt        0.19
                       o<<<<< Symm adapt        0.00

                       o<<<<< (ab) max sync:      0.00
       1.0000     -76.11021595 -2.66D-08 -2.66D-08  6.26D-08 3.0D-01      1.3

          Number of sigma calls:        9
                       o<<<<< (aa):             0.00
                       o<<<<< (bb):             0.00
                       o<<<<< (ab):             0.02
                       o<<<<< (total)           0.03
                       o<<<<< (aa) ff           0.00
                       o<<<<< (aa) gop          0.00
                       o<<<<< (aa) dot          0.00
                       o<<<<< (ab) str          0.00
                       o<<<<< (ab) gath         0.00
                       o<<<<< (ab) dotab        0.00
                       o<<<<< (ab) scat         0.00
                       o<<<<< (ab) sync         0.00
                       o<<<<< Density           0.01
                       o<<<<< Density one       0.00
                       o<<<<< Density two       0.00
                       o<<<<< Density ab        0.00
                       o<<<<< Spin adapt        0.13
                       o<<<<< Symm adapt        0.00

                       o<<<<< (ab) max sync:      0.00
       1.4244     -76.11021595  2.05D-11  1.98D-11  6.26D-08 2.3D-04      1.5



          %%%%% MacroIteration   3 %%%%%


          Number of sigma calls:        1
                       o<<<<< (aa):             0.00
                       o<<<<< (bb):             0.00
                       o<<<<< (ab):             0.00
                       o<<<<< (total)           0.00
                       o<<<<< (aa) ff           0.00
                       o<<<<< (aa) gop          0.00
                       o<<<<< (aa) dot          0.00
                       o<<<<< (ab) str          0.00
                       o<<<<< (ab) gath         0.00
                       o<<<<< (ab) dotab        0.00
                       o<<<<< (ab) scat         0.00
                       o<<<<< (ab) sync         0.00
                       o<<<<< Density           0.01
                       o<<<<< Density one       0.00
                       o<<<<< Density two       0.00
                       o<<<<< Density ab        0.01
                       o<<<<< Spin adapt        0.00
                       o<<<<< Symm adapt        0.00

                       o<<<<< (ab) max sync:      0.00

           >>>| Valence CI:            -84.864183756699
           >>>| MCSCF energy:          -76.110215952190
           >>>| Gradient norm:          0.103991434D-03
     --- Warning:    2 Hessian diagonals < 0.05 ---

                              ----- Line search ------

        step       energy         lsg     num-lsg   num-lsh   lsrat    time
      ------- ---------------- --------- --------- --------- ------- --------
       0.0000     -76.11021595 -1.51D-09  0.00D+00  0.00D+00 0.0D+00      1.5

          Number of sigma calls:        7
                       o<<<<< (aa):             0.00
                       o<<<<< (bb):             0.00
                       o<<<<< (ab):             0.02
                       o<<<<< (total)           0.02
                       o<<<<< (aa) ff           0.00
                       o<<<<< (aa) gop          0.00
                       o<<<<< (aa) dot          0.00
                       o<<<<< (ab) str          0.00
                       o<<<<< (ab) gath         0.00
                       o<<<<< (ab) dotab        0.00
                       o<<<<< (ab) scat         0.00
                       o<<<<< (ab) sync         0.00
                       o<<<<< Density           0.00
                       o<<<<< Density one       0.00
                       o<<<<< Density two       0.00
                       o<<<<< Density ab        0.00
                       o<<<<< Spin adapt        0.14
                       o<<<<< Symm adapt        0.00

                       o<<<<< (ab) max sync:      0.00
       1.0000     -76.11021595 -3.67D-10 -3.67D-10  1.14D-09 2.4D-01      1.7

          Number of sigma calls:        7
                       o<<<<< (aa):             0.00
                       o<<<<< (bb):             0.00
                       o<<<<< (ab):             0.02
                       o<<<<< (total)           0.03
                       o<<<<< (aa) ff           0.00
                       o<<<<< (aa) gop          0.00
                       o<<<<< (aa) dot          0.00
                       o<<<<< (ab) str          0.00
                       o<<<<< (ab) gath         0.00
                       o<<<<< (ab) dotab        0.00
                       o<<<<< (ab) scat         0.00
                       o<<<<< (ab) sync         0.00
                       o<<<<< Density           0.00
                       o<<<<< Density one       0.00
                       o<<<<< Density two       0.00
                       o<<<<< Density ab        0.00
                       o<<<<< Spin adapt        0.12
                       o<<<<< Symm adapt        0.00

                       o<<<<< (ab) max sync:      0.00
       1.3214     -76.11021595  4.54D-15  7.49D-13  1.14D-09 3.0D-06      1.9



          %%%%% MacroIteration   4 %%%%%


          Number of sigma calls:        1
                       o<<<<< (aa):             0.00
                       o<<<<< (bb):             0.00
                       o<<<<< (ab):             0.00
                       o<<<<< (total)           0.00
                       o<<<<< (aa) ff           0.00
                       o<<<<< (aa) gop          0.00
                       o<<<<< (aa) dot          0.00
                       o<<<<< (ab) str          0.00
                       o<<<<< (ab) gath         0.00
                       o<<<<< (ab) dotab        0.00
                       o<<<<< (ab) scat         0.00
                       o<<<<< (ab) sync         0.00
                       o<<<<< Density           0.00
                       o<<<<< Density one       0.00
                       o<<<<< Density two       0.00
                       o<<<<< Density ab        0.00
                       o<<<<< Spin adapt        0.00
                       o<<<<< Symm adapt        0.00

                       o<<<<< (ab) max sync:      0.00

           >>>| Valence CI:            -84.864183757694
           >>>| MCSCF energy:          -76.110215953186
           >>>| Gradient norm:          0.302856053D-04




     ==============================
            MCSCF Converged
     ==============================



          Canonical Eigenvalues

              1      
    1  -20.5493
    2   -1.3193
    3   -0.7096
    4   -0.5633
    5   -0.5089
    6   -0.0282
    7   -0.0254
    8   -0.0141
    9    0.4727
   10    0.5147
   11    1.0372
   12    1.0951
   13    1.4477
   14    1.4947
   15    1.6937
   16    1.8515
   17    1.8675
   18    2.2396
   19    2.3504
   20    3.2039
   21    3.3180
   22    3.4004
   23    3.8435
   24    4.0236


          Converged CI vector

   Index           Coefficient          Config. Occupation
         1         -0.97477878          1  2  3  4  5  1  2  3  4  5
        22         -0.06993014          1  2  3  4  5  1  2  3  4  8
         3          0.04129230          1  2  3  4  5  1  2  3  5  6
         8          0.02228083          1  2  3  4  5  1  2  3  5  7
         4          0.02245852          1  2  3  4  5  1  2  4  5  6
         9         -0.03754648          1  2  3  4  5  1  2  4  5  7
        38         -0.02204787          1  2  3  4  5  1  2  4  7  8
      1177         -0.06993014          1  2  3  4  8  1  2  3  4  5
      1198          0.04842904          1  2  3  4  8  1  2  3  4  8
      1179         -0.02355661          1  2  3  4  8  1  2  3  5  6
      1185          0.03008112          1  2  3  4  8  1  2  4  5  7
       113          0.04129230          1  2  3  5  6  1  2  3  4  5
       134         -0.02355661          1  2  3  5  6  1  2  3  4  8
       115          0.04339347          1  2  3  5  6  1  2  3  5  6
       116          0.03155809          1  2  3  5  6  1  2  4  5  6
       121         -0.02439337          1  2  3  5  6  1  2  4  5  7
       117         -0.02297677          1  2  3  5  6  1  3  4  5  6
       393          0.02228083          1  2  3  5  7  1  2  3  4  5
       400          0.02537024          1  2  3  5  7  1  2  3  5  7
       401         -0.02580356          1  2  3  5  7  1  2  4  5  7
       169          0.02245852          1  2  4  5  6  1  2  3  4  5
       171          0.03155809          1  2  4  5  6  1  2  3  5  6
       172          0.04091940          1  2  4  5  6  1  2  4  5  6
       173         -0.02125332          1  2  4  5  6  1  3  4  5  6
       449         -0.03754648          1  2  4  5  7  1  2  3  4  5
       470          0.03008112          1  2  4  5  7  1  2  3  4  8
       451         -0.02439337          1  2  4  5  7  1  2  3  5  6
       456         -0.02580356          1  2  4  5  7  1  2  3  5  7
       457          0.05625869          1  2  4  5  7  1  2  4  5  7
       458          0.02167199          1  2  4  5  7  1  3  4  5  7
      2073         -0.02204787          1  2  4  7  8  1  2  3  4  5
       227         -0.02297677          1  3  4  5  6  1  2  3  5  6
       228         -0.02125332          1  3  4  5  6  1  2  4  5  6
       229          0.02598933          1  3  4  5  6  1  3  4  5  6
       513          0.02167199          1  3  4  5  7  1  2  4  5  7
       514          0.02142654          1  3  4  5  7  1  3  4  5  7

          Number of sigma calls:        1
                       o<<<<< (aa):             0.00
                       o<<<<< (bb):             0.00
                       o<<<<< (ab):             0.00
                       o<<<<< (total)           0.00
                       o<<<<< (aa) ff           0.00
                       o<<<<< (aa) gop          0.00
                       o<<<<< (aa) dot          0.00
                       o<<<<< (ab) str          0.00
                       o<<<<< (ab) gath         0.00
                       o<<<<< (ab) dotab        0.00
                       o<<<<< (ab) scat         0.00
                       o<<<<< (ab) sync         0.00
                       o<<<<< Density           0.01
                       o<<<<< Density one       0.00
                       o<<<<< Density two       0.00
                       o<<<<< Density ab        0.01
                       o<<<<< Spin adapt        0.00
                       o<<<<< Symm adapt        0.00

                       o<<<<< (ab) max sync:      0.00



          Natural orbital occupation numbers

              1      
    1    2.0000
    2    1.9987
    3    1.9834
    4    1.9761
    5    1.9724
    6    0.0285
    7    0.0247
    8    0.0161


          Number of sigma calls:       15
                       o<<<<< (aa):             0.00
                       o<<<<< (bb):             0.00
                       o<<<<< (ab):             0.05
                       o<<<<< (total)           0.05
                       o<<<<< (aa) ff           0.00
                       o<<<<< (aa) gop          0.00
                       o<<<<< (aa) dot          0.00
                       o<<<<< (ab) str          0.00
                       o<<<<< (ab) gath         0.00
                       o<<<<< (ab) dotab        0.00
                       o<<<<< (ab) scat         0.00
                       o<<<<< (ab) sync         0.00
                       o<<<<< Density           0.01
                       o<<<<< Density one       0.00
                       o<<<<< Density two       0.00
                       o<<<<< Density ab        0.01
                       o<<<<< Spin adapt        0.29
                       o<<<<< Symm adapt        0.00

                       o<<<<< (ab) max sync:      0.00


       Final MCSCF results 
       ------------------- 

       Total MCSCF energy =    -76.110215953186
            Gradient norm =      3.0D-05

    CPU time for solution =      2.3s
   Wall time for solution =      4.3s



                        Analysis of MCSCF natural orbitals
                        ----------------------------------

 Vector    1  Occ=1.999991D+00  E=-2.054931D+01  Symmetry=a
              MO Center= -9.1D-02, -6.9D-02,  2.6D-10, r^2= 1.6D-02
   Bfn.  Coefficient  Atom+Function         Bfn.  Coefficient  Atom+Function  
  ----- ------------  ---------------      ----- ------------  ---------------
     1      0.998112  1 O  s          

 Vector    2  Occ=1.998712D+00  E=-1.319317D+00  Symmetry=a
              MO Center= -3.1D-01, -2.1D-01, -2.4D-07, r^2= 4.0D-01
   Bfn.  Coefficient  Atom+Function         Bfn.  Coefficient  Atom+Function  
  ----- ------------  ---------------      ----- ------------  ---------------
     3      0.520975  1 O  s                  2      0.447191  1 O  s          
     4     -0.215744  1 O  px                 7     -0.184963  1 O  px         

 Vector    3  Occ=1.983386D+00  E=-7.095970D-01  Symmetry=a
              MO Center= -7.3D-02, -5.8D-02,  2.3D-07, r^2= 6.1D-01
   Bfn.  Coefficient  Atom+Function         Bfn.  Coefficient  Atom+Function  
  ----- ------------  ---------------      ----- ------------  ---------------
     6      0.627186  1 O  pz                 9      0.502668  1 O  pz         

 Vector    4  Occ=1.976145D+00  E=-5.632824D-01  Symmetry=a
              MO Center=  3.7D-01, -1.7D-01,  8.5D-09, r^2= 5.7D-01
   Bfn.  Coefficient  Atom+Function         Bfn.  Coefficient  Atom+Function  
  ----- ------------  ---------------      ----- ------------  ---------------
     4      0.491510  1 O  px                20      0.418086  3 H  s          
     7      0.264761  1 O  px         

 Vector    5  Occ=1.972442D+00  E=-5.089368D-01  Symmetry=a
              MO Center= -5.6D-02,  4.0D-01,  4.8D-09, r^2= 6.4D-01
   Bfn.  Coefficient  Atom+Function         Bfn.  Coefficient  Atom+Function  
  ----- ------------  ---------------      ----- ------------  ---------------
     5      0.485992  1 O  py                15      0.412088  2 H  s          
     8      0.249208  1 O  py         

 Vector    6  Occ=2.850721D-02  E=-2.822995D-02  Symmetry=a
              MO Center= -3.8D-02,  5.9D-01,  2.0D-08, r^2= 6.5D-01
   Bfn.  Coefficient  Atom+Function         Bfn.  Coefficient  Atom+Function  
  ----- ------------  ---------------      ----- ------------  ---------------
     5      0.810807  1 O  py                15     -0.680151  2 H  s          
     2      0.370414  1 O  s                 16     -0.216436  2 H  s          
     4      0.155989  1 O  px         

 Vector    7  Occ=2.468753D-02  E=-2.543110D-02  Symmetry=a
              MO Center=  5.0D-01, -2.5D-01,  2.0D-08, r^2= 6.4D-01
   Bfn.  Coefficient  Atom+Function         Bfn.  Coefficient  Atom+Function  
  ----- ------------  ---------------      ----- ------------  ---------------
     4      0.824674  1 O  px                20     -0.713859  3 H  s          
     2      0.336072  1 O  s                  5     -0.276797  1 O  py         
    21     -0.212140  3 H  s          

 Vector    8  Occ=1.612896D-02  E=-1.406051D-02  Symmetry=a
              MO Center= -5.0D-02, -4.2D-02,  2.5D-07, r^2= 1.1D+00
   Bfn.  Coefficient  Atom+Function         Bfn.  Coefficient  Atom+Function  
  ----- ------------  ---------------      ----- ------------  ---------------
     6      0.964365  1 O  pz                 9     -0.951262  1 O  pz         

 Vector    9  Occ=0.000000D+00  E= 4.726915D-01  Symmetry=a
              MO Center=  4.9D-01,  1.6D-01, -7.4D-08, r^2= 3.6D+00
   Bfn.  Coefficient  Atom+Function         Bfn.  Coefficient  Atom+Function  
  ----- ------------  ---------------      ----- ------------  ---------------
    21     -1.116205  3 H  s                  3      1.071407  1 O  s          
    16     -0.885486  2 H  s                  7      0.416436  1 O  px         
    20      0.397746  3 H  s                 15      0.394427  2 H  s          
     8      0.221195  1 O  py                 4     -0.187699  1 O  px         
    22      0.163213  3 H  px                 2     -0.161436  1 O  s          

 Vector   10  Occ=0.000000D+00  E= 5.146832D-01  Symmetry=a
              MO Center=  4.1D-01,  5.0D-01,  2.2D-10, r^2= 4.2D+00
   Bfn.  Coefficient  Atom+Function         Bfn.  Coefficient  Atom+Function  
  ----- ------------  ---------------      ----- ------------  ---------------
    16      1.633626  2 H  s                 21     -1.522187  3 H  s          
    15     -0.581311  2 H  s                  8     -0.483304  1 O  py         
    20      0.473269  3 H  s                  7      0.316349  1 O  px         

 Vector   11  Occ=0.000000D+00  E= 1.037227D+00  Symmetry=a
              MO Center= -2.0D-03,  1.2D-01,  6.7D-09, r^2= 1.3D+00
   Bfn.  Coefficient  Atom+Function         Bfn.  Coefficient  Atom+Function  
  ----- ------------  ---------------      ----- ------------  ---------------
     7      1.070239  1 O  px                20     -0.948862  3 H  s          
     3      0.649736  1 O  s                 15     -0.584240  2 H  s          
     4     -0.437754  1 O  px                 8      0.305320  1 O  py         
    17      0.243939  2 H  px                 5     -0.227345  1 O  py         

 Vector   12  Occ=0.000000D+00  E= 1.095136D+00  Symmetry=a
              MO Center= -8.7D-02, -1.8D-01, -1.7D-09, r^2= 1.6D+00
   Bfn.  Coefficient  Atom+Function         Bfn.  Coefficient  Atom+Function  
  ----- ------------  ---------------      ----- ------------  ---------------
     8      1.550672  1 O  py                15     -0.870404  2 H  s          
     7     -0.803181  1 O  px                20      0.617017  3 H  s          
    21      0.521802  3 H  s                 16     -0.501114  2 H  s          
     5     -0.436129  1 O  py                18      0.206547  2 H  py         
    23      0.204265  3 H  py         

 Vector   13  Occ=0.000000D+00  E= 1.447738D+00  Symmetry=a
              MO Center=  3.2D-01,  2.8D-01,  5.4D-09, r^2= 1.1D+00
   Bfn.  Coefficient  Atom+Function         Bfn.  Coefficient  Atom+Function  
  ----- ------------  ---------------      ----- ------------  ---------------
    19      0.689704  2 H  pz                24     -0.666847  3 H  pz         

 Vector   14  Occ=0.000000D+00  E= 1.494653D+00  Symmetry=a
              MO Center= -8.0D-02, -4.4D-02, -5.2D-08, r^2= 1.4D+00
   Bfn.  Coefficient  Atom+Function         Bfn.  Coefficient  Atom+Function  
  ----- ------------  ---------------      ----- ------------  ---------------
     3      0.797361  1 O  s                  2     -0.710831  1 O  s          
     7     -0.605510  1 O  px                17      0.590424  2 H  px         
    23      0.540756  3 H  py                 8     -0.416236  1 O  py         
     1     -0.288379  1 O  s                 22      0.257485  3 H  px         
     4      0.241558  1 O  px                21     -0.234023  3 H  s          

 Vector   15  Occ=0.000000D+00  E= 1.693698D+00  Symmetry=a
              MO Center=  2.1D-01,  1.4D-01,  2.4D-09, r^2= 1.3D+00
   Bfn.  Coefficient  Atom+Function         Bfn.  Coefficient  Atom+Function  
  ----- ------------  ---------------      ----- ------------  ---------------
    24     -0.776469  3 H  pz                19     -0.745494  2 H  pz         
     9      0.708538  1 O  pz         

 Vector   16  Occ=0.000000D+00  E= 1.851511D+00  Symmetry=a
              MO Center=  2.3D-01,  2.7D-01, -1.2D-08, r^2= 1.4D+00
   Bfn.  Coefficient  Atom+Function         Bfn.  Coefficient  Atom+Function  
  ----- ------------  ---------------      ----- ------------  ---------------
    17     -0.852227  2 H  px                 3      0.843769  1 O  s          
     7      0.759102  1 O  px                20     -0.665686  3 H  s          
     8     -0.636956  1 O  py                23      0.583927  3 H  py         
     2     -0.463395  1 O  s                 22      0.304362  3 H  px         
     1     -0.212572  1 O  s                 21     -0.208859  3 H  s          

 Vector   17  Occ=0.000000D+00  E= 1.867456D+00  Symmetry=a
              MO Center=  1.5D-01,  4.0D-02, -1.3D-07, r^2= 1.2D+00
   Bfn.  Coefficient  Atom+Function         Bfn.  Coefficient  Atom+Function  
  ----- ------------  ---------------      ----- ------------  ---------------
     3      2.442140  1 O  s                  2     -1.486912  1 O  s          
    15     -0.764599  2 H  s                  1     -0.672172  1 O  s          
     8      0.666315  1 O  py                23     -0.575619  3 H  py         
    20     -0.560033  3 H  s                  7      0.497625  1 O  px         
    21     -0.310424  3 H  s                 16     -0.282410  2 H  s          

 Vector   18  Occ=0.000000D+00  E= 2.239557D+00  Symmetry=a
              MO Center= -9.2D-02,  9.1D-01,  2.3D-09, r^2= 7.3D-01
   Bfn.  Coefficient  Atom+Function         Bfn.  Coefficient  Atom+Function  
  ----- ------------  ---------------      ----- ------------  ---------------
    18      1.341156  2 H  py                 3      1.036469  1 O  s          
     5      0.474040  1 O  py                15     -0.465097  2 H  s          
    16     -0.464701  2 H  s                  8      0.457228  1 O  py         
    20     -0.218598  3 H  s                 23     -0.178196  3 H  py         


 Wrote Lagrangian and 1- and 2-particle density matrices to ./H2O.mcpdm


     Multipole analysis of the density
     ---------------------------------

     L   x y z        total        nuclear
     -   - - -        -----        -------
     0   0 0 0     -0.000000     10.000000

     1   1 0 0      0.593235     -0.000000
     1   0 1 0      0.427347      0.000000
     1   0 0 1     -0.000000      0.000000

     2   2 0 0     -4.062276      2.679864
     2   1 1 0     -0.757334     -1.344478
     2   1 0 1      0.000000      0.000000
     2   0 2 0     -3.377184      4.068599
     2   0 1 1      0.000000      0.000000
     2   0 0 2     -5.338295      0.000000


  Mulliken analysis of the total density
  --------------------------------------

    Atom       Charge   Shell Charges
 -----------   ------   -------------------------------------------------------
    1 O    8     8.34   2.00  0.84  0.86  2.80  1.83  0.01
    2 H    1     0.82   0.65  0.10  0.07
    3 H    1     0.84   0.68  0.08  0.08

    Mulliken analysis of the active space density
    ---------------------------------------------

    Atom       Charge   Shell Charges
 -----------   ------   -------------------------------------------------------
    1 O    8     8.34   2.00  0.84  0.86  2.80  1.83  0.01
    2 H    1     0.82   0.65  0.10  0.07
    3 H    1     0.84   0.68  0.08  0.08

 Parallel integral file used       1 records with       0 large values


 Task  times  cpu:        2.3s     wall:        4.3s


                                NWChem Input Module
                                -------------------


                                 NWChem SCF Module
                                 -----------------


                                        H2O



  ao basis        = "ao basis"
  functions       =    24
  atoms           =     3
  closed shells   =     5
  open shells     =     0
  charge          =   0.00
  wavefunction    = RHF 
  input vectors   = ./h2o.mos
  output vectors  = ./h2o-trash.mos
  use symmetry    = F
  symmetry adapt  = F


 Summary of "ao basis" -> "ao basis" (spherical)
 ------------------------------------------------------------------------------
       Tag                 Description            Shells   Functions and Types
 ---------------- ------------------------------  ------  ---------------------
 O                          cc-pVDZ                  6       14   3s2p1d
 H                          cc-pVDZ                  3        5   2s1p



 Forming initial guess at       4.3s


 Loading old vectors from job with title :

H2O


 Starting SCF solution at       4.3s



 ----------------------------------------------
         Quadratically convergent ROHF

 Convergence threshold     :          1.000E-04
 Maximum no. of iterations :           30
 Final Fock-matrix accuracy:          1.000E-07
 ----------------------------------------------


 #quartets = 3.081D+03 #integrals = 2.131D+04 #direct =  0.0% #cached =100.0%


 Integral file          = ./H2O.aoints.0
 Record size in doubles =  65536        No. of integs per rec  =  43688
 Max. records in memory =      4        Max. records in file   = 232375
 No. of bits per label  =      8        No. of bits per value  =     64



       Final RHF  results 
       ------------------ 

         Total SCF energy =    -76.016684855493
      One-electron energy =   -122.354723889933
      Two-electron energy =     37.584071229931
 Nuclear repulsion energy =      8.753967804509

        Time for solution =      0.0s


             Final eigenvalues
             -----------------

              1      
    1  -20.5493
    2   -1.3193
    3   -0.7096
    4   -0.5633
    5   -0.5089
    6   -0.0282
    7   -0.0254
    8   -0.0141
    9    0.4727
   10    0.5147
   11    1.0372
   12    1.0951
   13    1.4477
   14    1.4947
   15    1.6937

                       ROHF Final Molecular Orbital Analysis
                       -------------------------------------

 Vector    2  Occ=2.000000D+00  E=-1.319317D+00
              MO Center= -3.1D-01, -2.1D-01, -2.4D-07, r^2= 4.0D-01
   Bfn.  Coefficient  Atom+Function         Bfn.  Coefficient  Atom+Function  
  ----- ------------  ---------------      ----- ------------  ---------------
     3      0.520975  1 O  s                  2      0.447191  1 O  s          
     4     -0.215744  1 O  px                 7     -0.184963  1 O  px         

 Vector    3  Occ=2.000000D+00  E=-7.095970D-01
              MO Center= -7.3D-02, -5.8D-02,  2.3D-07, r^2= 6.1D-01
   Bfn.  Coefficient  Atom+Function         Bfn.  Coefficient  Atom+Function  
  ----- ------------  ---------------      ----- ------------  ---------------
     6      0.627186  1 O  pz                 9      0.502668  1 O  pz         

 Vector    4  Occ=2.000000D+00  E=-5.632824D-01
              MO Center=  3.7D-01, -1.7D-01,  8.5D-09, r^2= 5.7D-01
   Bfn.  Coefficient  Atom+Function         Bfn.  Coefficient  Atom+Function  
  ----- ------------  ---------------      ----- ------------  ---------------
     4      0.491510  1 O  px                20      0.418086  3 H  s          
     7      0.264761  1 O  px         

 Vector    5  Occ=2.000000D+00  E=-5.089368D-01
              MO Center= -5.6D-02,  4.0D-01,  4.8D-09, r^2= 6.4D-01
   Bfn.  Coefficient  Atom+Function         Bfn.  Coefficient  Atom+Function  
  ----- ------------  ---------------      ----- ------------  ---------------
     5      0.485992  1 O  py                15      0.412088  2 H  s          
     8      0.249208  1 O  py         

 Vector    6  Occ=0.000000D+00  E=-2.822995D-02
              MO Center= -3.8D-02,  5.9D-01,  2.0D-08, r^2= 6.5D-01
   Bfn.  Coefficient  Atom+Function         Bfn.  Coefficient  Atom+Function  
  ----- ------------  ---------------      ----- ------------  ---------------
     5      0.810807  1 O  py                15     -0.680151  2 H  s          
     2      0.370414  1 O  s                 16     -0.216436  2 H  s          
     4      0.155989  1 O  px         

 Vector    7  Occ=0.000000D+00  E=-2.543110D-02
              MO Center=  5.0D-01, -2.5D-01,  2.0D-08, r^2= 6.4D-01
   Bfn.  Coefficient  Atom+Function         Bfn.  Coefficient  Atom+Function  
  ----- ------------  ---------------      ----- ------------  ---------------
     4      0.824674  1 O  px                20     -0.713859  3 H  s          
     2      0.336072  1 O  s                  5     -0.276797  1 O  py         
    21     -0.212140  3 H  s          

 Vector    8  Occ=0.000000D+00  E=-1.406051D-02
              MO Center= -5.0D-02, -4.2D-02,  2.5D-07, r^2= 1.1D+00
   Bfn.  Coefficient  Atom+Function         Bfn.  Coefficient  Atom+Function  
  ----- ------------  ---------------      ----- ------------  ---------------
     6      0.964365  1 O  pz                 9     -0.951262  1 O  pz         

 Vector    9  Occ=0.000000D+00  E= 4.726915D-01
              MO Center=  4.9D-01,  1.6D-01, -7.4D-08, r^2= 3.6D+00
   Bfn.  Coefficient  Atom+Function         Bfn.  Coefficient  Atom+Function  
  ----- ------------  ---------------      ----- ------------  ---------------
    21     -1.116205  3 H  s                  3      1.071407  1 O  s          
    16     -0.885486  2 H  s                  7      0.416436  1 O  px         
    20      0.397746  3 H  s                 15      0.394427  2 H  s          
     8      0.221195  1 O  py                 4     -0.187699  1 O  px         
    22      0.163213  3 H  px                 2     -0.161436  1 O  s          

 Vector   10  Occ=0.000000D+00  E= 5.146832D-01
              MO Center=  4.1D-01,  5.0D-01,  2.2D-10, r^2= 4.2D+00
   Bfn.  Coefficient  Atom+Function         Bfn.  Coefficient  Atom+Function  
  ----- ------------  ---------------      ----- ------------  ---------------
    16      1.633626  2 H  s                 21     -1.522187  3 H  s          
    15     -0.581311  2 H  s                  8     -0.483304  1 O  py         
    20      0.473269  3 H  s                  7      0.316349  1 O  px         

 Vector   11  Occ=0.000000D+00  E= 1.037227D+00
              MO Center= -2.0D-03,  1.2D-01,  6.7D-09, r^2= 1.3D+00
   Bfn.  Coefficient  Atom+Function         Bfn.  Coefficient  Atom+Function  
  ----- ------------  ---------------      ----- ------------  ---------------
     7      1.070239  1 O  px                20     -0.948862  3 H  s          
     3      0.649736  1 O  s                 15     -0.584240  2 H  s          
     4     -0.437754  1 O  px                 8      0.305320  1 O  py         
    17      0.243939  2 H  px                 5     -0.227345  1 O  py         

 Vector   12  Occ=0.000000D+00  E= 1.095136D+00
              MO Center= -8.7D-02, -1.8D-01, -1.7D-09, r^2= 1.6D+00
   Bfn.  Coefficient  Atom+Function         Bfn.  Coefficient  Atom+Function  
  ----- ------------  ---------------      ----- ------------  ---------------
     8      1.550672  1 O  py                15     -0.870404  2 H  s          
     7     -0.803181  1 O  px                20      0.617017  3 H  s          
    21      0.521802  3 H  s                 16     -0.501114  2 H  s          
     5     -0.436129  1 O  py                18      0.206547  2 H  py         
    23      0.204265  3 H  py         

 Vector   13  Occ=0.000000D+00  E= 1.447738D+00
              MO Center=  3.2D-01,  2.8D-01,  5.4D-09, r^2= 1.1D+00
   Bfn.  Coefficient  Atom+Function         Bfn.  Coefficient  Atom+Function  
  ----- ------------  ---------------      ----- ------------  ---------------
    19      0.689704  2 H  pz                24     -0.666847  3 H  pz         

 Vector   14  Occ=0.000000D+00  E= 1.494653D+00
              MO Center= -8.0D-02, -4.4D-02, -5.2D-08, r^2= 1.4D+00
   Bfn.  Coefficient  Atom+Function         Bfn.  Coefficient  Atom+Function  
  ----- ------------  ---------------      ----- ------------  ---------------
     3      0.797361  1 O  s                  2     -0.710831  1 O  s          
     7     -0.605510  1 O  px                17      0.590424  2 H  px         
    23      0.540756  3 H  py                 8     -0.416236  1 O  py         
     1     -0.288379  1 O  s                 22      0.257485  3 H  px         
     4      0.241558  1 O  px                21     -0.234023  3 H  s          

 Vector   15  Occ=0.000000D+00  E= 1.693698D+00
              MO Center=  2.1D-01,  1.4D-01,  2.4D-09, r^2= 1.3D+00
   Bfn.  Coefficient  Atom+Function         Bfn.  Coefficient  Atom+Function  
  ----- ------------  ---------------      ----- ------------  ---------------
    24     -0.776469  3 H  pz                19     -0.745494  2 H  pz         
     9      0.708538  1 O  pz         


 center of mass
 --------------
 x =  -0.07599894 y =  -0.05749566 z =   0.00000000

 moments of inertia (a.u.)
 ------------------
           4.176081144162           1.255009080689           0.000000000000
           1.255009080689           2.833002082974           0.000000000000
           0.000000000000           0.000000000000           7.009083227136

  Mulliken analysis of the total density
  --------------------------------------

    Atom       Charge   Shell Charges
 -----------   ------   -------------------------------------------------------
    1 O    8     8.34   2.00  0.84  0.86  2.80  1.84  0.01
    2 H    1     0.82   0.64  0.10  0.07
    3 H    1     0.84   0.68  0.08  0.08

       Multipole analysis of the density wrt the origin
       ------------------------------------------------

     L   x y z        total         open         nuclear
     -   - - -        -----         ----         -------
     0   0 0 0     -0.000000      0.000000     10.000000

     1   1 0 0      0.602381      0.000000     -0.000000
     1   0 1 0      0.435449      0.000000      0.000000
     1   0 0 1     -0.000000      0.000000      0.000000

     2   2 0 0     -4.041108      0.000000      2.679864
     2   1 1 0     -0.766763      0.000000     -1.344478
     2   1 0 1      0.000000      0.000000      0.000000
     2   0 2 0     -3.344640      0.000000      4.068599
     2   0 1 1      0.000000      0.000000      0.000000
     2   0 0 2     -5.324721      0.000000      0.000000


 Parallel integral file used       1 records with       0 large values

                   NWChem Extensible Many-Electron Theory Module
                   ---------------------------------------------

              ======================================================
                   This portion of the program was automatically
                  generated by a Tensor Contraction Engine (TCE).
                  The development of this portion of the program
                 and TCE was supported by US Department of Energy,
                Office of Science, Office of Basic Energy Science.
                      TCE is a product of Battelle and PNNL.
              Please cite: S.Hirata, J.Phys.Chem.A 107, 9887 (2003).
              ======================================================

                                        H2O


            General Information
            -------------------
      Number of processors :     1
         Wavefunction type : Restricted Hartree-Fock
          No. of electrons :    10
           Alpha electrons :     5
            Beta electrons :     5
           No. of orbitals :    48
            Alpha orbitals :    24
             Beta orbitals :    24
        Alpha frozen cores :     0
         Beta frozen cores :     0
     Alpha frozen virtuals :     0
      Beta frozen virtuals :     0
         Spin multiplicity : singlet 
    Number of AO functions :    24
       Number of AO shells :    12
        Use of symmetry is : off
      Symmetry adaption is : off
         Schwarz screening : 0.10D-09

          Correlation Information
          -----------------------
          Calculation type : Coupled-cluster singles & doubles                           
   Perturbative correction : none                                                        
            Max iterations :      300
        Residual threshold : 0.10D-06
     T(0) DIIS level shift : 0.00D+00
     L(0) DIIS level shift : 0.00D+00
     T(1) DIIS level shift : 0.00D+00
     L(1) DIIS level shift : 0.00D+00
     T(R) DIIS level shift : 0.00D+00
     T(I) DIIS level shift : 0.00D+00
   CC-T/L Amplitude update :  5-th order DIIS
                I/O scheme : Global Array Library
        L-threshold :  0.10D-06
        EOM-threshold :  0.10D-06
 no EOMCCSD initial starts read in
 TCE RESTART OPTIONS
 READ_INT:   F
 WRITE_INT:  F
 READ_TA:    F
 WRITE_TA:   F
 READ_XA:    F
 WRITE_XA:   F
 READ_IN3:   F
 WRITE_IN3:  F
 SLICE:      F
 D4D5:       F
 quantumc:   F
 qrotation:  F
 pwtce:      F
 qducc:      T
 nacto:                         0
 nrotv:                         0
 nrot:                          0

            Memory Information
            ------------------
          Available GA space size is    1610612160 doubles
          Available MA space size is    1610610956 doubles

 Maximum block size        32 doubles

 tile_dim =     19

 Block   Spin    Irrep     Size     Offset   Alpha
 -------------------------------------------------
   1    alpha     a      5 doubles       0       1
   2    beta      a      5 doubles       5       1
   3    alpha     a     19 doubles      10       3
   4    beta      a     19 doubles      29       3

 Global array virtual files algorithm will be used

 Parallel file system coherency ......... OK

 #quartets = 3.081D+03 #integrals = 2.131D+04 #direct =  0.0% #cached =100.0%


 Integral file          = ./H2O.aoints.0
 Record size in doubles =  65536        No. of integs per rec  =  43688
 Max. records in memory =      4        Max. records in file   = 232375
 No. of bits per label  =      8        No. of bits per value  =     64


 Fock matrix recomputed
 1-e file size   =              576
 1-e file name   = ./H2O.f1
 Cpu & wall time / sec            0.0            0.0
 4-electron integrals stored in orbital form

 v2    file size   =           185666
 4-index algorithm nr.  13 is used
 imaxsize =       30
 imaxsize ichop =        0
 Cpu & wall time / sec            0.1            0.1
 T1-number-of-tasks                    1

 t1 file size   =               95
 t1 file name   = ./H2O.t1
 t1 file handle =       -998
 T2-number-of-boxes                    2

 t2 file size   =            18050
 t2 file name   = ./H2O.t2
 t2 file handle =       -996
CCSD iterations
 ---------------------------------------------------------
 Iter          Residuum       Correlation     Cpu    Wall 
 ---------------------------------------------------------
NEW TASK SCHEDULING
CCSD_T1_NTS --- OK
CCSD_T2_NTS --- OK
    1   0.9537315081695  -0.3712896883955     0.0     0.0
    2   1.7346187216993   0.0767784219379     0.0     0.0
    3   3.2810382619242  -0.7590783138030     0.0     0.0
    4   6.5143571508769   0.7857210058046     0.0     0.0
    5  10.7412345979478  -2.1279265511912     0.0     0.0
 MICROCYCLE DIIS UPDATE:                    5                    5
    6   0.0702734961155  -0.2072901409052     0.0     0.0
    7   0.1160414269151  -0.2278417525473     0.0     0.0
    8   0.2409324522632  -0.1809199951369     0.0     0.0
    9   0.5121516909690  -0.2376522742781     0.0     0.0
   10   1.0271559638924   0.0646321321952     0.0     0.0
 MICROCYCLE DIIS UPDATE:                   10                    5
   11   0.0065540260960  -0.2170716503162     0.0     0.0
   12   0.0079337723174  -0.2165197447206     0.0     0.0
   13   0.0169136138600  -0.2175793259325     0.0     0.0
   14   0.0387047393415  -0.2148933467556     0.0     0.0
   15   0.0890438467307  -0.2200501519028     0.0     0.0
 MICROCYCLE DIIS UPDATE:                   15                    5
   16   0.0004336311317  -0.2169264709989     0.0     0.0
   17   0.0003997089552  -0.2169250314290     0.0     0.0
   18   0.0007103107936  -0.2169277456247     0.0     0.0
   19   0.0015703971632  -0.2169372600280     0.0     0.0
   20   0.0035941342478  -0.2169165715820     0.0     0.0
 MICROCYCLE DIIS UPDATE:                   20                    5
   21   0.0000609382962  -0.2169356232973     0.0     0.0
   22   0.0000545304259  -0.2169268356274     0.0     0.0
   23   0.0000779402857  -0.2169395673707     0.0     0.0
   24   0.0001363028099  -0.2169162763118     0.0     0.0
   25   0.0002524895414  -0.2169590955439     0.0     0.0
 MICROCYCLE DIIS UPDATE:                   25                    5
   26   0.0000099388003  -0.2169310951126     0.0     0.0
   27   0.0000106138531  -0.2169312391451     0.0     0.0
   28   0.0000205776526  -0.2169309974066     0.0     0.0
   29   0.0000457874689  -0.2169317743245     0.0     0.0
   30   0.0001046906275  -0.2169301277301     0.0     0.0
 MICROCYCLE DIIS UPDATE:                   30                    5
   31   0.0000015700069  -0.2169313515012     0.0     0.0
   32   0.0000013952961  -0.2169311894281     0.0     0.0
   33   0.0000020012421  -0.2169314003143     0.0     0.0
   34   0.0000036187176  -0.2169310066879     0.0     0.0
   35   0.0000069013715  -0.2169317834433     0.0     0.0
 MICROCYCLE DIIS UPDATE:                   35                    5
   36   0.0000002726714  -0.2169312680425     0.0     0.0
   37   0.0000002669463  -0.2169312517637     0.0     0.0
   38   0.0000004685615  -0.2169312840133     0.0     0.0
   39   0.0000010113580  -0.2169312224961     0.0     0.0
   40   0.0000022612760  -0.2169313548175     0.0     0.0
 MICROCYCLE DIIS UPDATE:                   40                    5
   41   0.0000000488763  -0.2169312660090     0.0     0.0
 -----------------------------------------------------------------
 Iterations converged
 CCSD correlation energy / hartree =        -0.216931266009021
 CCSD total energy / hartree       =       -76.233616121501711

 Singles contributions

 Doubles contributions
     6a   (alpha)     7a   (alpha) ---     4a   (alpha)     5a   (alpha)        0.0203342680
     6a   (alpha)     7a   (alpha) ---     5a   (alpha)     4a   (alpha)       -0.0203342680
     6a   (alpha)     8a   (alpha) ---     3a   (alpha)     5a   (alpha)        0.0251394855
     6a   (alpha)     8a   (alpha) ---     5a   (alpha)     3a   (alpha)       -0.0251394855
     7a   (alpha)     6a   (alpha) ---     4a   (alpha)     5a   (alpha)       -0.0203342680
     7a   (alpha)     6a   (alpha) ---     5a   (alpha)     4a   (alpha)        0.0203342680
     7a   (alpha)     8a   (alpha) ---     3a   (alpha)     4a   (alpha)        0.0246396535
     7a   (alpha)     8a   (alpha) ---     4a   (alpha)     3a   (alpha)       -0.0246396535
     8a   (alpha)     6a   (alpha) ---     3a   (alpha)     5a   (alpha)       -0.0251394855
     8a   (alpha)     6a   (alpha) ---     5a   (alpha)     3a   (alpha)        0.0251394855
     8a   (alpha)     7a   (alpha) ---     3a   (alpha)     4a   (alpha)       -0.0246396535
     8a   (alpha)     7a   (alpha) ---     4a   (alpha)     3a   (alpha)        0.0246396535
     6a   (alpha)     6a   (beta ) ---     5a   (alpha)     5a   (beta )       -0.0915662432
     6a   (alpha)     7a   (beta ) ---     5a   (alpha)     4a   (beta )       -0.0292265212
     6a   (alpha)     8a   (beta ) ---     5a   (alpha)     3a   (beta )       -0.0347310194
     7a   (alpha)     6a   (beta ) ---     4a   (alpha)     5a   (beta )       -0.0292265212
     7a   (alpha)     7a   (beta ) ---     4a   (alpha)     4a   (beta )       -0.0800802851
     7a   (alpha)     8a   (beta ) ---     4a   (alpha)     3a   (beta )       -0.0341055770
     8a   (alpha)     6a   (beta ) ---     3a   (alpha)     5a   (beta )       -0.0347310194
     8a   (alpha)     7a   (beta ) ---     3a   (alpha)     4a   (beta )       -0.0341055770
     8a   (alpha)     8a   (beta ) ---     3a   (alpha)     3a   (beta )       -0.0511731554
 Ground state specification:
 exp(T)|Ref>~(1+T)|Ref>
 ------- a(p)+/a(q) strings ----------

 singles norm

 doubles norm

 Reference string
   1.0000000000000000      :(1a)+ (2a)+ (3a)+ (4a)+ (5a)+ (1b)+ (2b)+ (3b)+ (4b)+ (5b)+ |0>

 Singles strings

 Doubles strings
 -------------------------------------
 enrep_tce =    8.7539678045085267     
  EHF(total)         =       -76.01668486
  Shift (HFtot-HFA)  =         0.00000000
 ALL OCCUPIED ORBITALS ARE ACTIVE IN DUCC --> NO SHIFT
 Number of active orbitals                    8
 Number of active alpha electrons                    5
 Number of active beta electrons                    5
  nos                    10
  nvs                    38
 noas                     5
 nobs                     5
 nvas                    19
 nvbs                    19
 nactv                     3
 DUCC MODEL =                     6
 NONHF =  T
 F-T1 correlation    =   -1.9719377405552263E-005
 V-T1-T1 correlation =   -1.3451803919981379E-006
 V-T2 correlation    =  -0.21691020145120687     
 Total correlation   =  -0.21693126600900442     
 F-T1(Ext) correlation         =    7.8217094061081860E-006
 V-T1(Ext)-T1(Ext) correlation =    1.2164472678559070E-006
 V-T2(Ext) correlation         =  -0.12941481742082805     
 Total Ext correlation         =  -0.12940577926415409     
1-BODY TIME =    1.289 SECONDS.
  HHHH TIME =    1.579 SECONDS.
  PPPP TIME =    0.026 SECONDS.
  HHHP TIME =    0.524 SECONDS.
  PPPH TIME =    0.076 SECONDS.
  HPHP TIME =    0.288 SECONDS.
  HHPP TIME =    0.269 SECONDS.
 ONE-BODY UNITARY CHECK
 TWO-BODY UNITARY CHECK
                    1                    1                    1                    2  -2.2694630439799710E-012
                    1                    1                    1                    4   6.7055696153539030E-012
                    1                    1                    1                    5   4.8491271697007998E-012
                    1                    1                    2                    1   2.2694604014407266E-012
                    1                    1                    2                    4  -3.3917225500991740E-011
                    1                    1                    2                    5  -2.6237040626806134E-011
                    1                    1                    4                    1  -6.7055693714826924E-012
                    1                    1                    4                    2   3.3917225492499387E-011
                    1                    1                    4                    5  -1.6314529957197561E-012
                    1                    1                    5                    1  -4.8491271482533636E-012
                    1                    1                    5                    2   2.6237040636917021E-011
                    1                    1                    5                    4   1.6314529980291152E-012
                    1                    2                    1                    1   2.2694630439799710E-012
                    1                    2                    1                    4  -3.5533823279643162E-011
                    1                    2                    1                    5  -2.5488871430168203E-011
                    1                    2                    2                    1  -3.6781910850436361E-011
                    1                    2                    2                    2   6.6887769089974438E-011
                    1                    2                    2                    4   2.9316371205623248E-010
                    1                    2                    2                    5   2.1475969787243532E-010
                    1                    2                    3                    3  -1.4523576523467284E-011
                    1                    2                    4                    1   3.2870547429786345E-011
                    1                    2                    4                    2  -2.3784548115746151E-010
                    1                    2                    4                    4  -1.1364389060792005E-011
                    1                    2                    4                    5  -9.6861543105405436E-012
                    1                    2                    5                    1   2.5963533406558881E-011
                    1                    2                    5                    2  -1.8899913578618310E-010
                    1                    2                    5                    4  -3.8400884026646548E-011
                    1                    2                    5                    5   1.8785194744524743E-012
                    1                    3                    2                    3  -2.2642845931564182E-010
                    1                    3                    3                    1   1.2574763452732896E-010
                    1                    3                    3                    2  -8.8445686451804617E-010
                    1                    3                    3                    4   5.5616180064110843E-010
                    1                    3                    3                    5   4.1884122385649203E-010
                    1                    3                    4                    3  -2.6506519548719076E-010
                    1                    3                    5                    3  -1.9871746522598377E-010
                    1                    4                    1                    1  -6.7055696153539030E-012
                    1                    4                    1                    2   3.5533823279643162E-011
                    1                    4                    1                    5  -3.1599098337942166E-012
                    1                    4                    2                    1   8.1719231208310372E-011
                    1                    4                    2                    2  -3.8495737568150477E-010
                    1                    4                    2                    4  -8.5905851009149270E-011
                    1                    4                    2                    5   2.8009173132963541E-011
                    1                    4                    3                    3   1.3123771305667100E-011
                    1                    4                    4                    1   2.5730195751805240E-011
                    1                    4                    4                    2  -2.1511754270259198E-010
                    1                    4                    4                    4   4.7336343003570813E-011
                    1                    4                    4                    5   3.3213658733044493E-010
                    1                    4                    5                    1  -2.7611916225689370E-011
                    1                    4                    5                    2   2.1736840588116105E-010
                    1                    4                    5                    4  -2.3625410568856031E-010
                    1                    4                    5                    5  -3.8146352309740527E-011
                    1                    5                    1                    1  -4.8491271697007998E-012
                    1                    5                    1                    2   2.5488871430168203E-011
                    1                    5                    1                    4   3.1599098337942166E-012
                    1                    5                    2                    1   6.3845319656086197E-011
                    1                    5                    2                    2  -3.1023426900560764E-010
                    1                    5                    2                    4   3.3821535253431706E-012
                    1                    5                    2                    5  -8.7944742634127326E-011
                    1                    5                    3                    3   1.0543594969865548E-011
                    1                    5                    4                    1  -3.0047127980159516E-011
                    1                    5                    4                    2   2.1722228196415817E-010
                    1                    5                    4                    4  -1.7357332920258067E-011
                    1                    5                    4                    5  -3.0381385861949495E-010
                    1                    5                    5                    1   2.5451751817229251E-011
                    1                    5                    5                    2  -1.9924860849770964E-010
                    1                    5                    5                    4   3.7603843389827363E-010
                    1                    5                    5                    5   1.0254038491751282E-011
                    1                    6                    1                    7  -2.3715945873803435E-011
                    1                    6                    1                    9   8.7199275577987123E-012
                    1                    6                    1                   10   5.6707277762413355E-012
                    1                    6                    2                    6  -2.8039848221084185E-011
                    1                    6                    2                    7   1.0707103606510948E-010
                    1                    6                    2                    9  -1.0174892395645174E-010
                    1                    6                    2                   10  -5.2073335660846043E-011
                    1                    6                    3                    8  -1.0638527211948023E-010
                    1                    6                    4                    7   3.1025893659775150E-011
                    1                    6                    4                    9  -2.6392544399955753E-011
                    1                    6                    4                   10   1.9139481666208269E-011
                    1                    6                    5                    7   1.9473796273455912E-011
                    1                    6                    5                    9   3.7290480599250220E-011
                    1                    6                    5                   10  -4.0688740571281912E-011
                    1                    6                    6                    2   2.1446622255893999E-011
                    1                    6                    6                    4  -2.0143331447286528E-012
                    1                    6                    7                    1   3.0309171838993620E-011
                    1                    6                    7                    2  -1.0707103606510948E-010
                    1                    6                    7                    4   6.7831695989284402E-011
                    1                    6                    7                    5   2.5836292523798154E-011
                    1                    6                    8                    3   1.0638527211948023E-010
                    1                    6                    9                    1  -7.2165884379415957E-012
                    1                    6                    9                    2   2.8913340905517559E-012
                    1                    6                    9                    4   2.6392544399955753E-011
                    1                    6                    9                    5  -2.0770936619979308E-011
                    1                    6                   10                    1  -5.7311377865687518E-012
                    1                    6                   10                    2   6.7632470804324107E-012
                    1                    6                   10                    4  -3.5659025645479181E-011
                    1                    6                   10                    5   4.0688740571281912E-011
                    1                    7                    1                    6   2.3715945873803435E-011
                    1                    7                    1                    9  -2.1882971129594253E-011
                    1                    7                    1                   10  -1.7052704734399349E-011
                    1                    7                    2                    6  -6.9640231081802284E-012
                    1                    7                    2                    7   4.8716290376726867E-010
                    1                    7                    2                    9   6.4615799690026510E-011
                    1                    7                    2                   10   9.7259050639564304E-011
                    1                    7                    3                    8   5.6883698099086111E-010
                    1                    7                    4                    6   4.0773127062132541E-011
                    1                    7                    4                    7  -6.8845189965527354E-010
                    1                    7                    4                    9   2.6594881678831950E-010
                    1                    7                    4                   10  -7.1206432352040328E-011
                    1                    7                    5                    6   2.8436272108724181E-011
                    1                    7                    5                    7  -4.7093464371206206E-010
                    1                    7                    5                    9  -1.0443699171528570E-010
                    1                    7                    5                   10   3.3396043222500005E-010
                    1                    7                    6                    1  -2.1446650011469615E-011
                    1                    7                    6                    4  -1.3650896819178415E-011
                    1                    7                    6                    5  -8.4361432770019285E-012
                    1                    7                    7                    1  -2.9818814084592304E-011
                    1                    7                    7                    2  -4.2027512026088232E-010
                    1                    7                    7                    4   2.2854798609195370E-010
                    1                    7                    7                    5   1.1750067238636142E-010
                    1                    7                    8                    3  -5.8336056471541831E-010
                    1                    7                    9                    1  -7.9025067739602051E-012
                    1                    7                    9                    2   4.5060633393004257E-010
                    1                    7                    9                    4  -2.7731320365043111E-010
                    1                    7                    9                    5   6.1520281924298814E-011
                    1                    7                   10                    1  -2.4727355579790000E-012
                    1                    7                   10                    2   2.8193547539981378E-010
                    1                    7                   10                    4   6.6036104427562303E-011
                    1                    7                   10                    5  -3.3208191752009952E-010
                    1                    8                    2                    8   2.8003798759057563E-010
                    1                    8                    3                    6  -2.4911211982114878E-011
                    1                    8                    3                    7   7.8061652628025335E-010
                    1                    8                    3                    9  -1.3413748237156575E-010
                    1                    8                    3                   10  -1.0114741509636982E-010
                    1                    8                    4                    8  -3.7576108457421098E-010
                    1                    8                    5                    8  -2.8194316673002540E-010
                    1                    8                    7                    3  -5.0646644517149397E-010
                    1                    8                    8                    1   1.5065770853084359E-010
                    1                    8                    8                    2  -1.6650733916656613E-009
                    1                    8                    8                    4   6.9029924788452379E-010
                    1                    8                    8                    5   5.1998864762647923E-010
                    1                    8                    9                    3   1.1069592291412800E-010
                    1                    8                   10                    3   8.3225692830424247E-011
                    1                    9                    1                    6  -8.7199275577987123E-012
                    1                    9                    1                    7   2.1882971129594253E-011
                    1                    9                    1                   10  -2.1965103347287851E-012
                    1                    9                    2                    6   2.6880578925941867E-011
                    1                    9                    2                    7  -3.6033176485997243E-010
                    1                    9                    2                    9   2.9113373170575052E-011
                    1                    9                    2                   10  -2.9632613095069427E-011
                    1                    9                    3                    8  -4.0074690007413372E-010
                    1                    9                    4                    6  -1.5536627540058134E-011
                    1                    9                    4                    7   3.0282665090808347E-010
                    1                    9                    4                    9  -1.1284487233531593E-009
                    1                    9                    4                   10   9.4862377068155590E-011
                    1                    9                    5                    6  -1.0815148689807819E-011
                    1                    9                    5                    7   6.2851502648231250E-011
                    1                    9                    5                    9  -1.6963065717703896E-010
                    1                    9                    5                   10  -3.6710418125501798E-010
                    1                    9                    6                    1   2.0143609003042684E-012
                    1                    9                    6                    2   1.3650897469699719E-011
                    1                    9                    7                    1   5.4838637103538090E-011
                    1                    9                    7                    2  -2.4625612313200484E-011
                    1                    9                    7                    4  -1.1501923892487387E-010
                    1                    9                    7                    5   5.7641779804135096E-011
                    1                    9                    8                    3   4.1387067210851836E-010
                    1                    9                    9                    1   4.1266656758409681E-011
                    1                    9                    9                    2  -5.1794417713080243E-010
                    1                    9                    9                    4   1.1757850647969859E-009
[...]
    8    1    3    5        0.0064300222
    8    1    3    6        0.0095041033
    8    1    3    7        0.0082169599
    8    1    3    8        0.0000000119
    8    2    3    1        0.0186956710
    8    2    3    2        0.0500225907
    8    2    3    3        0.0000000246
    8    2    3    4        0.0075018888
    8    2    3    5        0.0057959237
    8    2    3    6        0.0133462217
    8    2    3    7        0.0113615610
    8    2    3    8        0.0000000207
    8    3    3    1        0.0000000083
    8    3    3    2        0.0000000341
    8    3    3    3        0.1965535484
    8    3    3    4        0.0000000061
    8    3    3    5        0.0000000047
    8    3    3    6        0.0000000167
    8    3    3    7        0.0000000152
    8    3    3    8        0.1525736642
    8    4    3    1        0.0038221333
    8    4    3    2        0.0032785552
    8    4    3    3       -0.0000000131
    8    4    3    4        0.0062751013
    8    4    3    5        0.0013174919
    8    4    3    6        0.0053007186
    8    4    3    7        0.0169344886
    8    4    3    8       -0.0000000066
    8    5    3    1        0.0029494477
    8    5    3    2        0.0023084980
    8    5    3    3       -0.0000000098
    8    5    3    4        0.0012667164
    8    5    3    5        0.0052322508
    8    5    3    6        0.0161721265
    8    5    3    7       -0.0010976585
    8    5    3    8       -0.0000000045
    8    6    3    1        0.0074268040
    8    6    3    2        0.0282855776
    8    6    3    3        0.0000000204
    8    6    3    4        0.0114773035
    8    6    3    5        0.0273138634
    8    6    3    6        0.0191870994
    8    6    3    7        0.0026323882
    8    6    3    8        0.0000000040
    8    7    3    1        0.0064768929
    8    7    3    2        0.0244199247
    8    7    3    3        0.0000000176
    8    7    3    4        0.0289498515
    8    7    3    5        0.0006308403
    8    7    3    6        0.0027109012
    8    7    3    7        0.0180261663
    8    7    3    8        0.0000000032
    8    8    3    1        0.0000000076
    8    8    3    2        0.0000000606
    8    8    3    3        0.6576564627
    8    8    3    4        0.0000000121
    8    8    3    5        0.0000000096
    8    8    3    6        0.0000000163
    8    8    3    7        0.0000000148
    8    8    3    8        0.1654523192
    8    1    4    1        0.0000000002
    8    1    4    2       -0.0000000071
    8    1    4    3        0.0083255097
    8    1    4    4       -0.0000000062
    8    1    4    5       -0.0000000019
    8    1    4    6       -0.0000000027
    8    1    4    7       -0.0000000037
    8    1    4    8        0.0044706197
    8    2    4    1       -0.0000000036
    8    2    4    2       -0.0000000089
    8    2    4    3        0.0068225679
    8    2    4    4       -0.0000000071
    8    2    4    5       -0.0000000011
    8    2    4    6       -0.0000000043
    8    2    4    7       -0.0000000059
    8    2    4    8        0.0050316504
    8    3    4    1       -0.0032761310
    8    3    4    2       -0.0013219067
    8    3    4    3        0.0000000056
    8    3    4    4        0.1376154527
    8    3    4    5        0.0051981174
    8    3    4    6        0.0220923792
    8    3    4    7        0.1118842227
    8    3    4    8       -0.0000000066
    8    4    4    1        0.0000000022
    8    4    4    2       -0.0000000013
    8    4    4    3        0.0056576700
    8    4    4    4       -0.0000000194
    8    4    4    6       -0.0000000014
    8    4    4    7       -0.0000000072
    8    4    4    8        0.0170669936
    8    5    4    1       -0.0000000002
    8    5    4    2        0.0000000003
    8    5    4    3        0.0012336195
    8    5    4    4       -0.0000000086
    8    5    4    5       -0.0000000013
    8    5    4    6       -0.0000000026
    8    5    4    7       -0.0000000088
    8    5    4    8        0.0014181366
    8    6    4    1       -0.0000000002
    8    6    4    2       -0.0000000065
    8    6    4    3        0.0115883660
    8    6    4    4       -0.0000000057
    8    6    4    5       -0.0000000013
    8    6    4    6       -0.0000000007
    8    6    4    7       -0.0000000017
    8    6    4    8        0.0019273233
    8    7    4    1        0.0000000035
    8    7    4    2        0.0000000016
    8    7    4    3        0.0284770055
    8    7    4    4        0.0000000005
    8    7    4    5       -0.0000000023
    8    7    4    6       -0.0000000005
    8    7    4    7       -0.0000000001
    8    7    4    8        0.0063169758
    8    8    4    1       -0.0050966296
    8    8    4    2        0.0052605617
    8    8    4    3        0.0000000121
    8    8    4    4        0.5634639614
    8    8    4    5        0.0086692971
    8    8    4    6        0.0277100727
    8    8    4    7        0.1446062396
    8    8    4    8       -0.0000000133
    8    1    5    1        0.0000000002
    8    1    5    2       -0.0000000053
    8    1    5    3        0.0064165805
    8    1    5    4       -0.0000000018
    8    1    5    5       -0.0000000048
    8    1    5    6       -0.0000000035
    8    1    5    7       -0.0000000013
    8    1    5    8        0.0034283895
    8    2    5    1       -0.0000000027
    8    2    5    2       -0.0000000068
    8    2    5    3        0.0052704311
    8    2    5    4       -0.0000000011
    8    2    5    5       -0.0000000062
    8    2    5    6       -0.0000000056
    8    2    5    7       -0.0000000020
    8    2    5    8        0.0039870296
    8    3    5    1       -0.0024101953
    8    3    5    2       -0.0008758971
    8    3    5    3        0.0000000044
    8    3    5    4        0.0052100410
    8    3    5    5        0.1309000852
    8    3    5    6        0.1109102232
    8    3    5    7       -0.0207186971
    8    3    5    8       -0.0000000045
    8    4    5    1       -0.0000000002
    8    4    5    2        0.0000000003
    8    4    5    3        0.0012837625
    8    4    5    5       -0.0000000126
    8    4    5    6       -0.0000000110
    8    4    5    7        0.0000000004
    8    4    5    8        0.0014181366
    8    5    5    1        0.0000000022
    8    5    5    2       -0.0000000014
    8    5    5    3        0.0046560339
    8    5    5    4       -0.0000000014
    8    5    5    5       -0.0000000158
    8    5    5    6       -0.0000000035
    8    5    5    7        0.0000000020
    8    5    5    8        0.0163215248
    8    6    5    1        0.0000000034
    8    6    5    2        0.0000000022
    8    6    5    3        0.0267962027
    8    6    5    4       -0.0000000012
    8    6    5    5        0.0000000013
    8    6    5    6       -0.0000000002
    8    6    5    8        0.0062281729
    8    7    5    1       -0.0000000015
    8    7    5    2       -0.0000000072
    8    7    5    3        0.0009276968
    8    7    5    4       -0.0000000023
    8    7    5    5       -0.0000000052
    8    7    5    6       -0.0000000019
    8    7    5    7       -0.0000000002
    8    7    5    8       -0.0005781973
    8    8    5    1       -0.0038055625
    8    8    5    2        0.0038558225
    8    8    5    3        0.0000000096
    8    8    5    4        0.0086692971
    8    8    5    5        0.5506704536
    8    8    5    6        0.1468523968
    8    8    5    7       -0.0281909233
    8    8    5    8       -0.0000000100
    8    1    6    1        0.0000000024
    8    1    6    2       -0.0000000063
    8    1    6    3        0.0094257146
    8    1    6    4       -0.0000000026
    8    1    6    5       -0.0000000030
    8    1    6    6       -0.0000000075
    8    1    6    7       -0.0000000025
    8    1    6    8        0.0106058738
    8    2    6    1       -0.0000000039
    8    2    6    2       -0.0000000132
    8    2    6    3        0.0135891054
    8    2    6    4       -0.0000000045
    8    2    6    5       -0.0000000076
    8    2    6    6       -0.0000000048
    8    2    6    7       -0.0000000040
    8    2    6    8        0.0093847909
    8    3    6    1       -0.0052041146
    8    3    6    2        0.0129595425
    8    3    6    3        0.0000000151
    8    3    6    4        0.0211488068
    8    3    6    5        0.1072786889
    8    3    6    6        0.1610806717
    8    3    6    7       -0.0050368831
    8    3    6    8        0.0000000040
    8    4    6    1        0.0000000004
    8    4    6    2       -0.0000000030
    8    4    6    3        0.0051021274
    8    4    6    4       -0.0000000009
    8    4    6    5       -0.0000000108
    8    4    6    6       -0.0000000143
    8    4    6    7       -0.0000000001
    8    4    6    8        0.0019273233
    8    5    6    1        0.0000000030
    8    5    6    2       -0.0000000020
    8    5    6    3        0.0154917438
    8    5    6    4       -0.0000000028
    8    5    6    5       -0.0000000027
    8    5    6    6       -0.0000000148
    8    5    6    7        0.0000000005
    8    5    6    8        0.0062281729
    8    6    6    1        0.0000000051
    8    6    6    2        0.0000000032
    8    6    6    3        0.0197100850
    8    6    6    4       -0.0000000008
    8    6    6    5       -0.0000000007
    8    6    6    6        0.0000000009
    8    6    6    7       -0.0000000001
    8    6    6    8        0.0297772695
    8    7    6    1       -0.0000000016
    8    7    6    2       -0.0000000067
    8    7    6    3        0.0028957134
    8    7    6    4       -0.0000000006
    8    7    6    5       -0.0000000021
    8    7    6    6       -0.0000000064
    8    7    6    7        0.0000000010
    8    7    6    8        0.0064936875
    8    8    6    1       -0.0073117633
    8    8    6    2        0.0122380378
    8    8    6    3        0.0000000163
    8    8    6    4        0.0277100727
    8    8    6    5        0.1468523968
    8    8    6    6        0.5699728916
    8    8    6    7       -0.0047454692
    8    8    6    8        0.0000000122
    8    1    7    1        0.0000000020
    8    1    7    2       -0.0000000055
    8    1    7    3        0.0081473393
    8    1    7    4       -0.0000000032
    8    1    7    5       -0.0000000014
    8    1    7    6       -0.0000000025
    8    1    7    7       -0.0000000070
    8    1    7    8        0.0092209547
    8    2    7    1       -0.0000000034
    8    2    7    2       -0.0000000116
    8    2    7    3        0.0116179129
    8    2    7    4       -0.0000000079
    8    2    7    5       -0.0000000015
    8    2    7    6       -0.0000000039
    8    2    7    7       -0.0000000032
    8    2    7    8        0.0079985661
    8    3    7    1       -0.0045090833
    8    3    7    2        0.0104032146
    8    3    7    3        0.0000000139
    8    3    7    4        0.1082936933
    8    3    7    5       -0.0202754043
    8    3    7    6       -0.0050639410
    8    3    7    7        0.1651372541
    8    3    7    8        0.0000000032
    8    4    7    1        0.0000000031
    8    4    7    2       -0.0000000021
    8    4    7    3        0.0164287503
    8    4    7    4       -0.0000000067
    8    4    7    5        0.0000000002
    8    4    7    6       -0.0000000002
    8    4    7    7       -0.0000000183
    8    4    7    8        0.0063169758
    8    5    7    1       -0.0000000008
    8    5    7    2       -0.0000000021
    8    5    7    3       -0.0010337391
    8    5    7    4       -0.0000000088
    8    5    7    5        0.0000000024
    8    5    7    6        0.0000000007
    8    5    7    7       -0.0000000098
    8    5    7    8       -0.0005781973
    8    6    7    1       -0.0000000016
    8    6    7    2       -0.0000000065
    8    6    7    3        0.0028022454
    8    6    7    4       -0.0000000019
    8    6    7    6       -0.0000000001
    8    6    7    7       -0.0000000059
    8    6    7    8        0.0064936875
    8    7    7    1        0.0000000058
    8    7    7    2        0.0000000056
    8    7    7    3        0.0184751262
    8    7    7    4       -0.0000000006
    8    7    7    5       -0.0000000002
    8    7    7    6        0.0000000011
    8    7    7    7        0.0000000013
    8    7    7    8        0.0290030538
    8    8    7    1       -0.0062655699
    8    8    7    2        0.0094699317
    8    8    7    3        0.0000000148
    8    8    7    4        0.1446062396
    8    8    7    5       -0.0281909233
    8    8    7    6       -0.0047454692
    8    8    7    7        0.5785764404
    8    8    7    8        0.0000000100
    8    1    8    1        0.0444389062
    8    1    8    2        0.0239731752
    8    1    8    3        0.0000000124
    8    1    8    4        0.0043343568
    8    1    8    5        0.0033258029
    8    1    8    6        0.0105760091
    8    1    8    7        0.0091952160
    8    1    8    8        0.0000000143
    8    2    8    1        0.0239731752
    8    2    8    2        0.0497578362
    8    2    8    3        0.0000000153
    8    2    8    4        0.0056858197
    8    2    8    5        0.0045172495
    8    2    8    6        0.0098732471
    8    2    8    7        0.0084205480
    8    2    8    8        0.0000000182
    8    3    8    1        0.0000000124
    8    3    8    2        0.0000000153
    8    3    8    3        0.1520436977
    8    3    8    4       -0.0000000075
    8    3    8    5       -0.0000000052
    8    3    8    6        0.0000000036
    8    3    8    7        0.0000000028
    8    3    8    8        0.1654523192
    8    4    8    1        0.0043343568
    8    4    8    2        0.0056858197
    8    4    8    3       -0.0000000075
    8    4    8    4        0.0164632399
    8    4    8    5        0.0014540280
    8    4    8    6        0.0018243759
    8    4    8    7        0.0061230030
    8    4    8    8       -0.0000000133
    8    5    8    1        0.0033258029
    8    5    8    2        0.0045172495
    8    5    8    3       -0.0000000052
    8    5    8    4        0.0014540280
    8    5    8    5        0.0160252472
    8    5    8    6        0.0060089122
    8    5    8    7       -0.0005946213
    8    5    8    8       -0.0000000100
    8    6    8    1        0.0105760091
    8    6    8    2        0.0098732471
    8    6    8    3        0.0000000036
    8    6    8    4        0.0018243759
    8    6    8    5        0.0060089122
    8    6    8    6        0.0297719172
    8    6    8    7        0.0064724392
    8    6    8    8        0.0000000122
    8    7    8    1        0.0091952160
    8    7    8    2        0.0084205480
    8    7    8    3        0.0000000028
    8    7    8    4        0.0061230030
    8    7    8    5       -0.0005946213
    8    7    8    6        0.0064724392
    8    7    8    7        0.0290050172
    8    7    8    8        0.0000000100
    8    8    8    1        0.0000000143
    8    8    8    2        0.0000000182
    8    8    8    3        0.1654523192
    8    8    8    4       -0.0000000133
    8    8    8    5       -0.0000000100
    8    8    8    6        0.0000000122
    8    8    8    7        0.0000000100
    8    8    8    8        0.6074724900
 end_two_electron_integrals

 Parallel integral file used       1 records with       0 large values


 Task  times  cpu:        4.8s     wall:        4.9s


                                NWChem Input Module
                                -------------------


 Summary of allocated global arrays
-----------------------------------
  No active global arrays


MA_summarize_allocated_blocks: starting scan ...
MA_summarize_allocated_blocks: scan completed: 0 heap blocks, 0 stack blocks
MA usage statistics:

	allocation statistics:
					      heap	     stack
					      ----	     -----
	current number of blocks	         0	         0
	maximum number of blocks	        18	        42
	current total bytes		         0	         0
	maximum total bytes		   2175760	 141357496
	maximum total K-bytes		      2176	    141358
	maximum total M-bytes		         3	       142


                                     CITATION
                                     --------
                Please cite the following reference when publishing
                           results obtained with NWChem:

          E. Apra, E. J. Bylaska, W. A. de Jong, N. Govind, K. Kowalski,
       T. P. Straatsma, M. Valiev, H. J. J. van Dam, Y. Alexeev, J. Anchell,
       V. Anisimov, F. W. Aquino, R. Atta-Fynn, J. Autschbach, N. P. Bauman,
     J. C. Becca, D. E. Bernholdt, K. Bhaskaran-Nair, S. Bogatko, P. Borowski,
         J. Boschen, J. Brabec, A. Bruner, E. Cauet, Y. Chen, G. N. Chuev,
      C. J. Cramer, J. Daily, M. J. O. Deegan, T. H. Dunning Jr., M. Dupuis,
   K. G. Dyall, G. I. Fann, S. A. Fischer, A. Fonari, H. Fruchtl, L. Gagliardi,
      J. Garza, N. Gawande, S. Ghosh, K. Glaesemann, A. W. Gotz, J. Hammond,
       V. Helms, E. D. Hermes, K. Hirao, S. Hirata, M. Jacquelin, L. Jensen,
   B. G. Johnson, H. Jonsson, R. A. Kendall, M. Klemm, R. Kobayashi, V. Konkov,
      S. Krishnamoorthy, M. Krishnan, Z. Lin, R. D. Lins, R. J. Littlefield,
      A. J. Logsdail, K. Lopata, W. Ma, A. V. Marenich, J. Martin del Campo,
   D. Mejia-Rodriguez, J. E. Moore, J. M. Mullin, T. Nakajima, D. R. Nascimento,
    J. A. Nichols, P. J. Nichols, J. Nieplocha, A. Otero-de-la-Roza, B. Palmer,
    A. Panyala, T. Pirojsirikul, B. Peng, R. Peverati, J. Pittner, L. Pollack,
   R. M. Richard, P. Sadayappan, G. C. Schatz, W. A. Shelton, D. W. Silverstein,
   D. M. A. Smith, T. A. Soares, D. Song, M. Swart, H. L. Taylor, G. S. Thomas,
            V. Tipparaju, D. G. Truhlar, K. Tsemekhman, T. Van Voorhis,
      A. Vazquez-Mayagoitia, P. Verma, O. Villa, A. Vishnu, K. D. Vogiatzis,
        D. Wang, J. H. Weare, M. J. Williamson, T. L. Windus, K. Wolinski,
        A. T. Wong, Q. Wu, C. Yang, Q. Yu, M. Zacharias, Z. Zhang, Y. Zhao,
                                and R. J. Harrison
                        "NWChem: Past, present, and future
                         J. Chem. Phys. 152, 184102 (2020)
                               doi:10.1063/5.0004997

                                      AUTHORS
                                      -------
  E. Apra, E. J. Bylaska, N. Govind, K. Kowalski, M. Valiev, D. Mejia-Rodriguez,
       A. Kunitsa, N. P. Bauman, A. Panyala, W. A. de Jong, T. P. Straatsma,
        H. J. J. van Dam, D. Wang, T. L. Windus, J. Hammond, J. Autschbach,
    K. Bhaskaran-Nair, J. Brabec, K. Lopata, S. A. Fischer, S. Krishnamoorthy,
     M. Jacquelin, W. Ma, M. Klemm, O. Villa, Y. Chen, V. Anisimov, F. Aquino,
    S. Hirata, M. T. Hackler, Eric Hermes, L. Jensen, J. E. Moore, J. C. Becca,
      V. Konjkov, T. Risthaus, M. Malagoli, A. Marenich, A. Otero-de-la-Roza,
        J. Mullin, P. Nichols, R. Peverati, J. Pittner, Y. Zhao, P.-D. Fan,
        A. Fonari, M. J. Williamson, R. J. Harrison, J. R. Rehr, M. Dupuis,
     D. Silverstein, D. M. A. Smith, J. Nieplocha, V. Tipparaju, M. Krishnan,
     B. E. Van Kuiken, A. Vazquez-Mayagoitia, M. Swart, Q. Wu, T. Van Voorhis,
     A. A. Auer, M. Nooijen, L. D. Crosby, E. Brown, G. Cisneros, G. I. Fann,
   H. Fruchtl, J. Garza, K. Hirao, R. A. Kendall, J. A. Nichols, K. Tsemekhman,
    K. Wolinski, J. Anchell, D. E. Bernholdt, P. Borowski, T. Clark, D. Clerc,
   H. Dachsel, M. J. O. Deegan, K. Dyall, D. Elwood, E. Glendening, M. Gutowski,
   A. C. Hess, J. Jaffe, B. G. Johnson, J. Ju, R. Kobayashi, R. Kutteh, Z. Lin,
   R. Littlefield, X. Long, B. Meng, T. Nakajima, S. Niu, L. Pollack, M. Rosing,
   K. Glaesemann, G. Sandrone, M. Stave, H. Taylor, G. Thomas, J. H. van Lenthe,
                               A. T. Wong, Z. Zhang.

 Total times  cpu:        7.1s     wall:        9.2s
