 argument  1 = input.nw
  NWChem w/ OpenMP: maximum threads =    1



============================== echo of input deck ==============================
 echo
 start H2O
 title "H2O"

 memory total 24 gb

 geometry units bohr
 symmetry c1
        O  0.00000000  0.00000000  0.00000000
        H  0.00000000  2.16605375  0.00000000
        H  1.72558000 -0.64860000  0.00000000
 end

 basis spherical
   * library cc-pVDZ
 end

 mcscf
   active  8
   actelec 10
   multiplicity 1
   maxiter 40
   vectors input h2o.mos
   vectors output h2o.mos
 end

 task mcscf

 scf
   vectors input h2o.mos
   vectors output h2o-trash.mos
   noscf
 end

 tce
   2eorb
   2emet 13
   ccsd
   maxiter 300
 end

# set tce:print_integrals T
# set tce:qorb 8
# set tce:qela 5
# set tce:qelb 5

 set tce:qducc T
 set tce:nactv 3
 set tce:nonhf T
 set tce:ducc_model 6

 set tce:printtol 0.02

 task tce
================================================================================


                                         
                                         


             Northwest Computational Chemistry Package (NWChem) 7.0.1
             --------------------------------------------------------


                    Environmental Molecular Sciences Laboratory
                       Pacific Northwest National Laboratory
                                Richland, WA 99352

                              Copyright (c) 1994-2020
                       Pacific Northwest National Laboratory
                            Battelle Memorial Institute

             NWChem is an open-source computational chemistry package
                        distributed under the terms of the
                      Educational Community License (ECL) 2.0
             A copy of the license is included with this distribution
                              in the LICENSE.TXT file

                                  ACKNOWLEDGMENT
                                  --------------

            This software and its documentation were developed at the
            EMSL at Pacific Northwest National Laboratory, a multiprogram
            national laboratory, operated for the U.S. Department of Energy
            by Battelle under Contract Number DE-AC05-76RL01830. Support
            for this work was provided by the Department of Energy Office
            of Biological and Environmental Research, Office of Basic
            Energy Sciences, and the Office of Advanced Scientific Computing.


           Job information
           ---------------

    hostname        = WE46210
    program         = /home/baum612/code/nwchem/bin/LINUX64/nwchem
    date            = Wed Sep  4 02:23:10 2024

    compiled        = Wed_Sep_04_02:00:17_2024
    source          = /home/baum612/code/nwchem
    nwchem branch   = 7.0.0
    nwchem revision = nwchem_on_git-4191-g39d87d64de
    ga revision     = 5.8.1
    use scalapack   = F
    input           = input.nw
    prefix          = H2O.
    data base       = ./H2O.db
    status          = startup
    nproc           =        1
    time left       =     -1s



           Memory information
           ------------------

    heap     =  805306366 doubles =   6144.0 Mbytes
    stack    =  805306363 doubles =   6144.0 Mbytes
    global   = 1610612736 doubles =  12288.0 Mbytes (distinct from heap & stack)
    total    = 3221225465 doubles =  24576.0 Mbytes
    verify   = yes
    hardfail = no 


           Directory information
           ---------------------

  0 permanent = .
  0 scratch   = .




                                NWChem Input Module
                                -------------------


                                        H2O
                                        ---
 Turning off AUTOSYM since
 SYMMETRY directive was detected!


          ------
          auto-z
          ------
  no constraints, skipping    0.0000000000000000     
  no constraints, skipping    0.0000000000000000     


                             Geometry "geometry" -> ""
                             -------------------------

 Output coordinates in a.u. (scale by  1.000000000 to convert to a.u.)

  No.       Tag          Charge          X              Y              Z
 ---- ---------------- ---------- -------------- -------------- --------------
    1 O                    8.0000    -0.17255800    -0.15174538     0.00000000
    2 H                    1.0000    -0.17255800     2.01430838     0.00000000
    3 H                    1.0000     1.55302200    -0.80034538     0.00000000

      Atomic Mass 
      ----------- 

      O                 15.994910
      H                  1.007825


 Effective nuclear repulsion energy (a.u.)       8.3359340302

            Nuclear Dipole moment (a.u.) 
            ----------------------------
        X                 Y               Z
 ---------------- ---------------- ----------------
    -0.0000000000     0.0000000000     0.0000000000



                                Z-matrix (autoz)
                                -------- 

 Units are Angstrom for bonds and degrees for angles

      Type          Name      I     J     K     L     M      Value
      ----------- --------  ----- ----- ----- ----- ----- ----------
    1 Stretch                  1     2                       1.14623
    2 Stretch                  1     3                       0.97551
    3 Bend                     2     1     3               110.59992


            XYZ format geometry
            -------------------
     3
 geometry
 O                    -0.09131377    -0.08030020     0.00000000
 H                    -0.09131377     1.06592616     0.00000000
 H                     0.82182391    -0.42352456     0.00000000

 ==============================================================================
                                internuclear distances
 ------------------------------------------------------------------------------
       center one      |      center two      | atomic units |       a.u.
 ------------------------------------------------------------------------------
    3 H                |   1 O                |     1.84345  |     1.84345
 ------------------------------------------------------------------------------
                         number of included internuclear distances:          1
 ==============================================================================





 Summary of "ao basis" -> "" (spherical)
 ------------------------------------------------------------------------------
       Tag                 Description            Shells   Functions and Types
 ---------------- ------------------------------  ------  ---------------------
 *                          cc-pVDZ                   on all atoms 


                      Basis "ao basis" -> "ao basis" (spherical)
                      -----
  O (Oxygen)
  ----------
            Exponent  Coefficients 
       -------------- ---------------------------------------------------------
  1 S  1.17200000E+04  0.000710
  1 S  1.75900000E+03  0.005470
  1 S  4.00800000E+02  0.027837
  1 S  1.13700000E+02  0.104800
  1 S  3.70300000E+01  0.283062
  1 S  1.32700000E+01  0.448719
  1 S  5.02500000E+00  0.270952
  1 S  1.01300000E+00  0.015458

  2 S  1.17200000E+04 -0.000160
  2 S  1.75900000E+03 -0.001263
  2 S  4.00800000E+02 -0.006267
  2 S  1.13700000E+02 -0.025716
  2 S  3.70300000E+01 -0.070924
  2 S  1.32700000E+01 -0.165411
  2 S  5.02500000E+00 -0.116955
  2 S  1.01300000E+00  0.557368

  3 S  3.02300000E-01  1.000000

  4 P  1.77000000E+01  0.043018
  4 P  3.85400000E+00  0.228913
  4 P  1.04600000E+00  0.508728

  5 P  2.75300000E-01  1.000000

  6 D  1.18500000E+00  1.000000

  H (Hydrogen)
  ------------
            Exponent  Coefficients 
       -------------- ---------------------------------------------------------
  1 S  1.30100000E+01  0.019685
  1 S  1.96200000E+00  0.137977
  1 S  4.44600000E-01  0.478148

  2 S  1.22000000E-01  1.000000

  3 P  7.27000000E-01  1.000000



 Summary of "ao basis" -> "ao basis" (spherical)
 ------------------------------------------------------------------------------
       Tag                 Description            Shells   Functions and Types
 ---------------- ------------------------------  ------  ---------------------
 O                          cc-pVDZ                  6       14   3s2p1d
 H                          cc-pVDZ                  3        5   2s1p



                            NWChem Direct MCSCF Module
                            --------------------------


                                        H2O


     -----------------------------------
       Basis functions:             24
       Inactive shells:              0
       Active shells:                8
       Active electrons:            10
       Symmetry:                    a       
       Multiplicity:                 1
       Orbital rotations:          128
     -----------------------------------

     -----------------------------------
       E2 extrapolation:             F
       Conjugacy:                    T
       Micro CI relax:               T
       Canonical orbitals:           T
       Maximum iterations:          40
       Converge threshold:    1.00E-04
       Conjugacy resets:            20
       Initial levelshift:        0.10
     -----------------------------------

 Loading old vectors from job with title :

H2O


   input molecular orbitals = ./h2o.mos
  output molecular orbtials = ./h2o.mos

       No. of determinants:          3136


  Starting Orbital Energies
   -20.556772    -1.302207    -0.686347    -0.554101    -0.507188    -0.033488
    -0.025651    -0.013814     0.482558     0.520818     1.033183     1.129943
     1.442409     1.510407     1.685816     1.799889     1.842787     2.101041
     2.350476     3.137053     3.304623     3.342529     3.758327     4.008466

  Orbital Symmetry Irreps
a    a    a    a    a    a    a    a    a    a    a    a    a    a    a   
a    a    a    a    a    a    a    a    a   

 #quartets = 3.081D+03 #integrals = 2.131D+04 #direct =  0.0% #cached =100.0%


 Integral file          = ./H2O.aoints.0
 Record size in doubles =  65536        No. of integs per rec  =  43688
 Max. records in memory =      4        Max. records in file   = 232356
 No. of bits per label  =      8        No. of bits per value  =     64




          %%%%% MacroIteration   1 %%%%%


          Number of sigma calls:       15
                       o<<<<< (aa):             0.00
                       o<<<<< (bb):             0.00
                       o<<<<< (ab):             0.05
                       o<<<<< (total)           0.05
                       o<<<<< (aa) ff           0.00
                       o<<<<< (aa) gop          0.00
                       o<<<<< (aa) dot          0.00
                       o<<<<< (ab) str          0.00
                       o<<<<< (ab) gath         0.00
                       o<<<<< (ab) dotab        0.00
                       o<<<<< (ab) scat         0.00
                       o<<<<< (ab) sync         0.00
                       o<<<<< Density           0.01
                       o<<<<< Density one       0.00
                       o<<<<< Density two       0.00
                       o<<<<< Density ab        0.01
                       o<<<<< Spin adapt        0.20
                       o<<<<< Symm adapt        0.00

                       o<<<<< (ab) max sync:      0.00

           >>>| Valence CI:            -84.429043874935
           >>>| MCSCF energy:          -76.093109844692
           >>>| Gradient norm:          0.757647328D-02

                              ----- Line search ------

        step       energy         lsg     num-lsg   num-lsh   lsrat    time
      ------- ---------------- --------- --------- --------- ------- --------
       0.0000     -76.09310984 -8.31D-06  0.00D+00  0.00D+00 0.0D+00      0.4

          Number of sigma calls:       14
                       o<<<<< (aa):             0.00
                       o<<<<< (bb):             0.00
                       o<<<<< (ab):             0.04
                       o<<<<< (total)           0.05
                       o<<<<< (aa) ff           0.00
                       o<<<<< (aa) gop          0.00
                       o<<<<< (aa) dot          0.00
                       o<<<<< (ab) str          0.00
                       o<<<<< (ab) gath         0.00
                       o<<<<< (ab) dotab        0.00
                       o<<<<< (ab) scat         0.00
                       o<<<<< (ab) sync         0.00
                       o<<<<< Density           0.00
                       o<<<<< Density one       0.00
                       o<<<<< Density two       0.00
                       o<<<<< Density ab        0.00
                       o<<<<< Spin adapt        0.22
                       o<<<<< Symm adapt        0.00

                       o<<<<< (ab) max sync:      0.00
       1.0000     -76.09311418 -3.73D-07 -3.73D-07  7.93D-06 4.5D-02      0.7
     --- Orbitals canonicalized ---



          %%%%% MacroIteration   2 %%%%%


          Number of sigma calls:       12
                       o<<<<< (aa):             0.00
                       o<<<<< (bb):             0.00
                       o<<<<< (ab):             0.04
                       o<<<<< (total)           0.05
                       o<<<<< (aa) ff           0.00
                       o<<<<< (aa) gop          0.00
                       o<<<<< (aa) dot          0.00
                       o<<<<< (ab) str          0.00
                       o<<<<< (ab) gath         0.00
                       o<<<<< (ab) dotab        0.00
                       o<<<<< (ab) scat         0.00
                       o<<<<< (ab) sync         0.00
                       o<<<<< Density           0.01
                       o<<<<< Density one       0.00
                       o<<<<< Density two       0.00
                       o<<<<< Density ab        0.01
                       o<<<<< Spin adapt        0.12
                       o<<<<< Symm adapt        0.00

                       o<<<<< (ab) max sync:      0.00

           >>>| Valence CI:            -84.429048215028
           >>>| MCSCF energy:          -76.093114184785
           >>>| Gradient norm:          0.631677491D-03
     --- Warning:    3 Hessian diagonals < 0.05 ---
     --- Conjugacy reset ---

                              ----- Line search ------

        step       energy         lsg     num-lsg   num-lsh   lsrat    time
      ------- ---------------- --------- --------- --------- ------- --------
       0.0000     -76.09311418 -1.04D-07  0.00D+00  0.00D+00 0.0D+00      0.9

          Number of sigma calls:       10
                       o<<<<< (aa):             0.00
                       o<<<<< (bb):             0.00
                       o<<<<< (ab):             0.03
                       o<<<<< (total)           0.04
                       o<<<<< (aa) ff           0.00
                       o<<<<< (aa) gop          0.00
                       o<<<<< (aa) dot          0.00
                       o<<<<< (ab) str          0.00
                       o<<<<< (ab) gath         0.00
                       o<<<<< (ab) dotab        0.00
                       o<<<<< (ab) scat         0.00
                       o<<<<< (ab) sync         0.00
                       o<<<<< Density           0.01
                       o<<<<< Density one       0.00
                       o<<<<< Density two       0.00
                       o<<<<< Density ab        0.01
                       o<<<<< Spin adapt        0.12
                       o<<<<< Symm adapt        0.00

                       o<<<<< (ab) max sync:      0.00
       1.0000     -76.09311425 -3.44D-08 -3.44D-08  6.96D-08 3.3D-01      1.1

          Number of sigma calls:       10
                       o<<<<< (aa):             0.00
                       o<<<<< (bb):             0.00
                       o<<<<< (ab):             0.03
                       o<<<<< (total)           0.03
                       o<<<<< (aa) ff           0.00
                       o<<<<< (aa) gop          0.00
                       o<<<<< (aa) dot          0.00
                       o<<<<< (ab) str          0.00
                       o<<<<< (ab) gath         0.00
                       o<<<<< (ab) dotab        0.00
                       o<<<<< (ab) scat         0.00
                       o<<<<< (ab) sync         0.00
                       o<<<<< Density           0.00
                       o<<<<< Density one       0.00
                       o<<<<< Density two       0.00
                       o<<<<< Density ab        0.00
                       o<<<<< Spin adapt        0.13
                       o<<<<< Symm adapt        0.00

                       o<<<<< (ab) max sync:      0.00
       1.4941     -76.09311426  4.00D-11  3.94D-11  6.97D-08 3.8D-04      1.3



          %%%%% MacroIteration   3 %%%%%


          Number of sigma calls:        1
                       o<<<<< (aa):             0.00
                       o<<<<< (bb):             0.00
                       o<<<<< (ab):             0.00
                       o<<<<< (total)           0.00
                       o<<<<< (aa) ff           0.00
                       o<<<<< (aa) gop          0.00
                       o<<<<< (aa) dot          0.00
                       o<<<<< (ab) str          0.00
                       o<<<<< (ab) gath         0.00
                       o<<<<< (ab) dotab        0.00
                       o<<<<< (ab) scat         0.00
                       o<<<<< (ab) sync         0.00
                       o<<<<< Density           0.01
                       o<<<<< Density one       0.00
                       o<<<<< Density two       0.00
                       o<<<<< Density ab        0.01
                       o<<<<< Spin adapt        0.00
                       o<<<<< Symm adapt        0.00

                       o<<<<< (ab) max sync:      0.00

           >>>| Valence CI:            -84.429048292743
           >>>| MCSCF energy:          -76.093114262500
           >>>| Gradient norm:          0.877401052D-04




     ==============================
            MCSCF Converged
     ==============================



          Canonical Eigenvalues

              1      
    1  -20.5571
    2   -1.3016
    3   -0.6854
    4   -0.5537
    5   -0.5072
    6   -0.0338
    7   -0.0257
    8   -0.0138
    9    0.4829
   10    0.5212
   11    1.0331
   12    1.1318
   13    1.4423
   14    1.5111
   15    1.6854
   16    1.7975
   17    1.8404
   18    2.0971
   19    2.3505
   20    3.1341
   21    3.3044
   22    3.3401
   23    3.7538
   24    4.0081


          Converged CI vector

   Index           Coefficient          Config. Occupation
         1          0.97121821          1  2  3  4  5  1  2  3  4  5
        22          0.07115504          1  2  3  4  5  1  2  3  4  8
         3         -0.04517404          1  2  3  4  5  1  2  3  5  6
         8          0.02551633          1  2  3  4  5  1  2  3  5  7
         4          0.02764074          1  2  3  4  5  1  2  4  5  6
         9          0.03696680          1  2  3  4  5  1  2  4  5  7
        38          0.02069199          1  2  3  4  5  1  2  4  7  8
      1177          0.07115504          1  2  3  4  8  1  2  3  4  5
      1198         -0.04817852          1  2  3  4  8  1  2  3  4  8
      1179          0.02430476          1  2  3  4  8  1  2  3  5  6
      1180         -0.02098731          1  2  3  4  8  1  2  4  5  6
      1185         -0.02783643          1  2  3  4  8  1  2  4  5  7
       113         -0.04517404          1  2  3  5  6  1  2  3  4  5
       134          0.02430476          1  2  3  5  6  1  2  3  4  8
       115         -0.06152500          1  2  3  5  6  1  2  3  5  6
       116          0.04596849          1  2  3  5  6  1  2  4  5  6
       117         -0.02122124          1  2  3  5  6  1  3  4  5  6
       393          0.02551633          1  2  3  5  7  1  2  3  4  5
       400         -0.02327153          1  2  3  5  7  1  2  3  5  7
       401         -0.02724698          1  2  3  5  7  1  2  4  5  7
       169          0.02764074          1  2  4  5  6  1  2  3  4  5
       190         -0.02098731          1  2  4  5  6  1  2  3  4  8
       171          0.04596849          1  2  4  5  6  1  2  3  5  6
       172         -0.05022507          1  2  4  5  6  1  2  4  5  6
       173          0.02252446          1  2  4  5  6  1  3  4  5  6
       449          0.03696680          1  2  4  5  7  1  2  3  4  5
       470         -0.02783643          1  2  4  5  7  1  2  3  4  8
       456         -0.02724698          1  2  4  5  7  1  2  3  5  7
       457         -0.05446139          1  2  4  5  7  1  2  4  5  7
       458         -0.02516648          1  2  4  5  7  1  3  4  5  7
      2073          0.02069199          1  2  4  7  8  1  2  3  4  5
       227         -0.02122124          1  3  4  5  6  1  2  3  5  6
       228          0.02252446          1  3  4  5  6  1  2  4  5  6
       229         -0.02426066          1  3  4  5  6  1  3  4  5  6
       513         -0.02516648          1  3  4  5  7  1  2  4  5  7
       514         -0.02447127          1  3  4  5  7  1  3  4  5  7

          Number of sigma calls:        1
                       o<<<<< (aa):             0.00
                       o<<<<< (bb):             0.00
                       o<<<<< (ab):             0.00
                       o<<<<< (total)           0.00
                       o<<<<< (aa) ff           0.00
                       o<<<<< (aa) gop          0.00
                       o<<<<< (aa) dot          0.00
                       o<<<<< (ab) str          0.00
                       o<<<<< (ab) gath         0.00
                       o<<<<< (ab) dotab        0.00
                       o<<<<< (ab) scat         0.00
                       o<<<<< (ab) sync         0.00
                       o<<<<< Density           0.01
                       o<<<<< Density one       0.00
                       o<<<<< Density two       0.00
                       o<<<<< Density ab        0.01
                       o<<<<< Spin adapt        0.00
                       o<<<<< Symm adapt        0.00

                       o<<<<< (ab) max sync:      0.00



          Natural orbital occupation numbers

              1      
    1    2.0000
    2    1.9985
    3    1.9829
    4    1.9754
    5    1.9624
    6    0.0389
    7    0.0254
    8    0.0165


          Number of sigma calls:       15
                       o<<<<< (aa):             0.00
                       o<<<<< (bb):             0.00
                       o<<<<< (ab):             0.05
                       o<<<<< (total)           0.05
                       o<<<<< (aa) ff           0.00
                       o<<<<< (aa) gop          0.00
                       o<<<<< (aa) dot          0.00
                       o<<<<< (ab) str          0.00
                       o<<<<< (ab) gath         0.00
                       o<<<<< (ab) dotab        0.00
                       o<<<<< (ab) scat         0.00
                       o<<<<< (ab) sync         0.00
                       o<<<<< Density           0.01
                       o<<<<< Density one       0.00
                       o<<<<< Density two       0.00
                       o<<<<< Density ab        0.01
                       o<<<<< Spin adapt        0.19
                       o<<<<< Symm adapt        0.00

                       o<<<<< (ab) max sync:      0.00


       Final MCSCF results 
       ------------------- 

       Total MCSCF energy =    -76.093114262501
            Gradient norm =      8.8D-05

    CPU time for solution =      1.6s
   Wall time for solution =      2.8s



                        Analysis of MCSCF natural orbitals
                        ----------------------------------

 Vector    1  Occ=1.999991D+00  E=-2.055711D+01  Symmetry=a
              MO Center= -9.1D-02, -8.0D-02,  9.2D-14, r^2= 1.6D-02
   Bfn.  Coefficient  Atom+Function         Bfn.  Coefficient  Atom+Function  
  ----- ------------  ---------------      ----- ------------  ---------------
     1      0.998811  1 O  s          

 Vector    2  Occ=1.998476D+00  E=-1.301596D+00  Symmetry=a
              MO Center= -3.0D-01, -2.1D-01, -6.4D-11, r^2= 4.0D-01
   Bfn.  Coefficient  Atom+Function         Bfn.  Coefficient  Atom+Function  
  ----- ------------  ---------------      ----- ------------  ---------------
     3      0.535383  1 O  s                  2      0.455410  1 O  s          
     4     -0.208688  1 O  px                 7     -0.177813  1 O  px         

 Vector    3  Occ=1.982910D+00  E=-6.854177D-01  Symmetry=a
              MO Center= -7.2D-02, -7.3D-02,  6.0D-11, r^2= 6.0D-01
   Bfn.  Coefficient  Atom+Function         Bfn.  Coefficient  Atom+Function  
  ----- ------------  ---------------      ----- ------------  ---------------
     6      0.629305  1 O  pz                 9      0.503673  1 O  pz         

 Vector    4  Occ=1.975422D+00  E=-5.536505D-01  Symmetry=a
              MO Center=  3.6D-01, -2.0D-01,  3.9D-12, r^2= 5.8D-01
   Bfn.  Coefficient  Atom+Function         Bfn.  Coefficient  Atom+Function  
  ----- ------------  ---------------      ----- ------------  ---------------
     4      0.490915  1 O  px                20      0.423806  3 H  s          
     7      0.262693  1 O  px         

 Vector    5  Occ=1.962374D+00  E=-5.071531D-01  Symmetry=a
              MO Center= -5.2D-02,  4.4D-01,  1.1D-12, r^2= 7.1D-01
   Bfn.  Coefficient  Atom+Function         Bfn.  Coefficient  Atom+Function  
  ----- ------------  ---------------      ----- ------------  ---------------
     5      0.476722  1 O  py                15      0.386678  2 H  s          
     8      0.272755  1 O  py                16      0.153030  2 H  s          

 Vector    6  Occ=3.893150D-02  E=-3.375298D-02  Symmetry=a
              MO Center= -5.5D-02,  6.3D-01,  3.2D-12, r^2= 7.1D-01
   Bfn.  Coefficient  Atom+Function         Bfn.  Coefficient  Atom+Function  
  ----- ------------  ---------------      ----- ------------  ---------------
     5      0.776735  1 O  py                15     -0.645936  2 H  s          
     2      0.298393  1 O  s                 16     -0.246115  2 H  s          

 Vector    7  Occ=2.540189D-02  E=-2.565792D-02  Symmetry=a
              MO Center=  5.1D-01, -2.7D-01,  5.8D-12, r^2= 6.4D-01
   Bfn.  Coefficient  Atom+Function         Bfn.  Coefficient  Atom+Function  
  ----- ------------  ---------------      ----- ------------  ---------------
     4      0.828753  1 O  px                20     -0.714602  3 H  s          
     2      0.345431  1 O  s                  5     -0.230685  1 O  py         
    21     -0.213398  3 H  s          

 Vector    8  Occ=1.649431D-02  E=-1.380134D-02  Symmetry=a
              MO Center= -4.9D-02, -5.9D-02,  7.3D-11, r^2= 1.1D+00
   Bfn.  Coefficient  Atom+Function         Bfn.  Coefficient  Atom+Function  
  ----- ------------  ---------------      ----- ------------  ---------------
     6      0.961610  1 O  pz                 9     -0.959413  1 O  pz         

 Vector    9  Occ=0.000000D+00  E= 4.829073D-01  Symmetry=a
              MO Center=  7.4D-01, -1.6D-01, -2.7D-11, r^2= 3.4D+00
   Bfn.  Coefficient  Atom+Function         Bfn.  Coefficient  Atom+Function  
  ----- ------------  ---------------      ----- ------------  ---------------
    21      1.379873  3 H  s                  3     -0.986975  1 O  s          
    16      0.569104  2 H  s                 20     -0.489861  3 H  s          
     7     -0.454131  1 O  px                15     -0.377543  2 H  s          
     4      0.195729  1 O  px                22     -0.184325  3 H  px         
     2      0.151770  1 O  s          

 Vector   10  Occ=0.000000D+00  E= 5.211954D-01  Symmetry=a
              MO Center=  1.8D-01,  9.1D-01,  1.4D-12, r^2= 3.8D+00
   Bfn.  Coefficient  Atom+Function         Bfn.  Coefficient  Atom+Function  
  ----- ------------  ---------------      ----- ------------  ---------------
    16      1.678897  2 H  s                 21     -1.239708  3 H  s          
    15     -0.747796  2 H  s                  8     -0.459296  1 O  py         
    20      0.385184  3 H  s                  7      0.232302  1 O  px         

 Vector   11  Occ=0.000000D+00  E= 1.033061D+00  Symmetry=a
              MO Center= -1.0D-01,  1.9D-01, -4.6D-13, r^2= 1.3D+00
   Bfn.  Coefficient  Atom+Function         Bfn.  Coefficient  Atom+Function  
  ----- ------------  ---------------      ----- ------------  ---------------
     7      1.208283  1 O  px                20     -1.036975  3 H  s          
     3      0.581770  1 O  s                  4     -0.453167  1 O  px         
    15     -0.334532  2 H  s                 17      0.280844  2 H  px         
    16      0.174005  2 H  s                  5     -0.161231  1 O  py         

 Vector   12  Occ=0.000000D+00  E= 1.131815D+00  Symmetry=a
              MO Center= -6.0D-03, -2.6D-01, -8.3D-13, r^2= 1.5D+00
   Bfn.  Coefficient  Atom+Function         Bfn.  Coefficient  Atom+Function  
  ----- ------------  ---------------      ----- ------------  ---------------
     8      1.518256  1 O  py                15     -0.793483  2 H  s          
     5     -0.561994  1 O  py                 7     -0.547694  1 O  px         
    21      0.479531  3 H  s                 16     -0.432795  2 H  s          
    20      0.425036  3 H  s                 23      0.239061  3 H  py         
    18      0.231613  2 H  py         

 Vector   13  Occ=0.000000D+00  E= 1.442276D+00  Symmetry=a
              MO Center=  2.9D-01,  3.6D-01,  2.5D-12, r^2= 1.2D+00
   Bfn.  Coefficient  Atom+Function         Bfn.  Coefficient  Atom+Function  
  ----- ------------  ---------------      ----- ------------  ---------------
    19      0.705843  2 H  pz                24     -0.651327  3 H  pz         

 Vector   14  Occ=0.000000D+00  E= 1.511099D+00  Symmetry=a
              MO Center= -6.7D-02, -8.7D-03, -1.2D-11, r^2= 1.5D+00
   Bfn.  Coefficient  Atom+Function         Bfn.  Coefficient  Atom+Function  
  ----- ------------  ---------------      ----- ------------  ---------------
     3      0.807240  1 O  s                  2     -0.720291  1 O  s          
    17      0.587380  2 H  px                 7     -0.567845  1 O  px         
    23      0.544293  3 H  py                 8     -0.392775  1 O  py         
     1     -0.293062  1 O  s                 22      0.255746  3 H  px         
     4      0.252227  1 O  px                21     -0.246333  3 H  s          

 Vector   15  Occ=0.000000D+00  E= 1.685402D+00  Symmetry=a
              MO Center=  2.4D-01,  1.7D-01,  3.3D-12, r^2= 1.4D+00
   Bfn.  Coefficient  Atom+Function         Bfn.  Coefficient  Atom+Function  
  ----- ------------  ---------------      ----- ------------  ---------------
    24      0.786975  3 H  pz                19      0.718597  2 H  pz         
     9     -0.667658  1 O  pz         

 Vector   16  Occ=0.000000D+00  E= 1.797537D+00  Symmetry=a
              MO Center=  2.4D-01,  3.0D-01, -6.3D-13, r^2= 1.4D+00
   Bfn.  Coefficient  Atom+Function         Bfn.  Coefficient  Atom+Function  
  ----- ------------  ---------------      ----- ------------  ---------------
    17      0.787427  2 H  px                 8      0.700801  1 O  py         
    23     -0.646283  3 H  py                 7     -0.640350  1 O  px         
    20      0.569593  3 H  s                  3     -0.484496  1 O  s          
    22     -0.327902  3 H  px                15     -0.283879  2 H  s          
     2      0.184360  1 O  s          

 Vector   17  Occ=0.000000D+00  E= 1.840379D+00  Symmetry=a
              MO Center=  9.3D-02,  2.8D-01, -3.5D-11, r^2= 1.2D+00
   Bfn.  Coefficient  Atom+Function         Bfn.  Coefficient  Atom+Function  
  ----- ------------  ---------------      ----- ------------  ---------------
     3      2.080892  1 O  s                  2     -1.459128  1 O  s          
     1     -0.641288  1 O  s                  7      0.573759  1 O  px         
    20     -0.571203  3 H  s                 15     -0.524065  2 H  s          
    21     -0.384192  3 H  s                 23     -0.369270  3 H  py         
     8      0.348850  1 O  py                18     -0.274690  2 H  py         

 Vector   18  Occ=0.000000D+00  E= 2.097075D+00  Symmetry=a
              MO Center= -4.7D-02,  7.6D-01, -2.4D-12, r^2= 1.1D+00
   Bfn.  Coefficient  Atom+Function         Bfn.  Coefficient  Atom+Function  
  ----- ------------  ---------------      ----- ------------  ---------------
     3      1.526334  1 O  s                 18      1.212217  2 H  py         
     8      0.624190  1 O  py                16     -0.519776  2 H  s          
     2     -0.515572  1 O  s                 15     -0.436111  2 H  s          
    20     -0.332336  3 H  s                 23     -0.323515  3 H  py         
     5      0.307978  1 O  py                 1     -0.279353  1 O  s          


 Wrote Lagrangian and 1- and 2-particle density matrices to ./H2O.mcpdm


     Multipole analysis of the density
     ---------------------------------

     L   x y z        total        nuclear
     -   - - -        -----        -------
     0   0 0 0     -0.000000     10.000000

     1   1 0 0      0.587588     -0.000000
     1   0 1 0      0.440469      0.000000
     1   0 0 1     -0.000000      0.000000

     2   2 0 0     -4.141856      2.679864
     2   1 1 0     -0.768771     -1.381060
     2   1 0 1      0.000000      0.000000
     2   0 2 0     -3.233995      4.882204
     2   0 1 1      0.000000      0.000000
     2   0 0 2     -5.425568      0.000000


  Mulliken analysis of the total density
  --------------------------------------

    Atom       Charge   Shell Charges
 -----------   ------   -------------------------------------------------------
    1 O    8     8.37   2.00  0.85  0.90  2.76  1.85  0.01
    2 H    1     0.79   0.59  0.15  0.05
    3 H    1     0.84   0.68  0.08  0.08

    Mulliken analysis of the active space density
    ---------------------------------------------

    Atom       Charge   Shell Charges
 -----------   ------   -------------------------------------------------------
    1 O    8     8.37   2.00  0.85  0.90  2.76  1.85  0.01
    2 H    1     0.79   0.59  0.15  0.05
    3 H    1     0.84   0.68  0.08  0.08

 Parallel integral file used       1 records with       0 large values


 Task  times  cpu:        1.6s     wall:        2.8s


                                NWChem Input Module
                                -------------------


                                 NWChem SCF Module
                                 -----------------


                                        H2O



  ao basis        = "ao basis"
  functions       =    24
  atoms           =     3
  closed shells   =     5
  open shells     =     0
  charge          =   0.00
  wavefunction    = RHF 
  input vectors   = ./h2o.mos
  output vectors  = ./h2o-trash.mos
  use symmetry    = F
  symmetry adapt  = F


 Summary of "ao basis" -> "ao basis" (spherical)
 ------------------------------------------------------------------------------
       Tag                 Description            Shells   Functions and Types
 ---------------- ------------------------------  ------  ---------------------
 O                          cc-pVDZ                  6       14   3s2p1d
 H                          cc-pVDZ                  3        5   2s1p



 Forming initial guess at       2.9s


 Loading old vectors from job with title :

H2O


 Starting SCF solution at       2.9s



 ----------------------------------------------
         Quadratically convergent ROHF

 Convergence threshold     :          1.000E-04
 Maximum no. of iterations :           30
 Final Fock-matrix accuracy:          1.000E-07
 ----------------------------------------------


 #quartets = 3.081D+03 #integrals = 2.131D+04 #direct =  0.0% #cached =100.0%


 Integral file          = ./H2O.aoints.0
 Record size in doubles =  65536        No. of integs per rec  =  43688
 Max. records in memory =      4        Max. records in file   = 232358
 No. of bits per label  =      8        No. of bits per value  =     64



       Final RHF  results 
       ------------------ 

         Total SCF energy =    -75.993802873314
      One-electron energy =   -121.565482610602
      Two-electron energy =     37.235745707045
 Nuclear repulsion energy =      8.335934030242

        Time for solution =      0.0s


             Final eigenvalues
             -----------------

              1      
    1  -20.5571
    2   -1.3016
    3   -0.6854
    4   -0.5537
    5   -0.5072
    6   -0.0338
    7   -0.0257
    8   -0.0138
    9    0.4829
   10    0.5212
   11    1.0331
   12    1.1318
   13    1.4423
   14    1.5111
   15    1.6854

                       ROHF Final Molecular Orbital Analysis
                       -------------------------------------

 Vector    2  Occ=2.000000D+00  E=-1.301596D+00
              MO Center= -3.0D-01, -2.1D-01, -6.4D-11, r^2= 4.0D-01
   Bfn.  Coefficient  Atom+Function         Bfn.  Coefficient  Atom+Function  
  ----- ------------  ---------------      ----- ------------  ---------------
     3      0.535383  1 O  s                  2      0.455410  1 O  s          
     4     -0.208688  1 O  px                 7     -0.177813  1 O  px         

 Vector    3  Occ=2.000000D+00  E=-6.854177D-01
              MO Center= -7.2D-02, -7.3D-02,  6.0D-11, r^2= 6.0D-01
   Bfn.  Coefficient  Atom+Function         Bfn.  Coefficient  Atom+Function  
  ----- ------------  ---------------      ----- ------------  ---------------
     6      0.629305  1 O  pz                 9      0.503673  1 O  pz         

 Vector    4  Occ=2.000000D+00  E=-5.536505D-01
              MO Center=  3.6D-01, -2.0D-01,  3.9D-12, r^2= 5.8D-01
   Bfn.  Coefficient  Atom+Function         Bfn.  Coefficient  Atom+Function  
  ----- ------------  ---------------      ----- ------------  ---------------
     4      0.490915  1 O  px                20      0.423806  3 H  s          
     7      0.262693  1 O  px         

 Vector    5  Occ=2.000000D+00  E=-5.071531D-01
              MO Center= -5.2D-02,  4.4D-01,  1.1D-12, r^2= 7.1D-01
   Bfn.  Coefficient  Atom+Function         Bfn.  Coefficient  Atom+Function  
  ----- ------------  ---------------      ----- ------------  ---------------
     5      0.476722  1 O  py                15      0.386678  2 H  s          
     8      0.272755  1 O  py                16      0.153030  2 H  s          

 Vector    6  Occ=0.000000D+00  E=-3.375298D-02
              MO Center= -5.5D-02,  6.3D-01,  3.2D-12, r^2= 7.1D-01
   Bfn.  Coefficient  Atom+Function         Bfn.  Coefficient  Atom+Function  
  ----- ------------  ---------------      ----- ------------  ---------------
     5      0.776735  1 O  py                15     -0.645936  2 H  s          
     2      0.298393  1 O  s                 16     -0.246115  2 H  s          

 Vector    7  Occ=0.000000D+00  E=-2.565792D-02
              MO Center=  5.1D-01, -2.7D-01,  5.8D-12, r^2= 6.4D-01
   Bfn.  Coefficient  Atom+Function         Bfn.  Coefficient  Atom+Function  
  ----- ------------  ---------------      ----- ------------  ---------------
     4      0.828753  1 O  px                20     -0.714602  3 H  s          
     2      0.345431  1 O  s                  5     -0.230685  1 O  py         
    21     -0.213398  3 H  s          

 Vector    8  Occ=0.000000D+00  E=-1.380134D-02
              MO Center= -4.9D-02, -5.9D-02,  7.3D-11, r^2= 1.1D+00
   Bfn.  Coefficient  Atom+Function         Bfn.  Coefficient  Atom+Function  
  ----- ------------  ---------------      ----- ------------  ---------------
     6      0.961610  1 O  pz                 9     -0.959413  1 O  pz         

 Vector    9  Occ=0.000000D+00  E= 4.829073D-01
              MO Center=  7.4D-01, -1.6D-01, -2.7D-11, r^2= 3.4D+00
   Bfn.  Coefficient  Atom+Function         Bfn.  Coefficient  Atom+Function  
  ----- ------------  ---------------      ----- ------------  ---------------
    21      1.379873  3 H  s                  3     -0.986975  1 O  s          
    16      0.569104  2 H  s                 20     -0.489861  3 H  s          
     7     -0.454131  1 O  px                15     -0.377543  2 H  s          
     4      0.195729  1 O  px                22     -0.184325  3 H  px         
     2      0.151770  1 O  s          

 Vector   10  Occ=0.000000D+00  E= 5.211954D-01
              MO Center=  1.8D-01,  9.1D-01,  1.4D-12, r^2= 3.8D+00
   Bfn.  Coefficient  Atom+Function         Bfn.  Coefficient  Atom+Function  
  ----- ------------  ---------------      ----- ------------  ---------------
    16      1.678897  2 H  s                 21     -1.239708  3 H  s          
    15     -0.747796  2 H  s                  8     -0.459296  1 O  py         
    20      0.385184  3 H  s                  7      0.232302  1 O  px         

 Vector   11  Occ=0.000000D+00  E= 1.033061D+00
              MO Center= -1.0D-01,  1.9D-01, -4.6D-13, r^2= 1.3D+00
   Bfn.  Coefficient  Atom+Function         Bfn.  Coefficient  Atom+Function  
  ----- ------------  ---------------      ----- ------------  ---------------
     7      1.208283  1 O  px                20     -1.036975  3 H  s          
     3      0.581770  1 O  s                  4     -0.453167  1 O  px         
    15     -0.334532  2 H  s                 17      0.280844  2 H  px         
    16      0.174005  2 H  s                  5     -0.161231  1 O  py         

 Vector   12  Occ=0.000000D+00  E= 1.131815D+00
              MO Center= -6.0D-03, -2.6D-01, -8.3D-13, r^2= 1.5D+00
   Bfn.  Coefficient  Atom+Function         Bfn.  Coefficient  Atom+Function  
  ----- ------------  ---------------      ----- ------------  ---------------
     8      1.518256  1 O  py                15     -0.793483  2 H  s          
     5     -0.561994  1 O  py                 7     -0.547694  1 O  px         
    21      0.479531  3 H  s                 16     -0.432795  2 H  s          
    20      0.425036  3 H  s                 23      0.239061  3 H  py         
    18      0.231613  2 H  py         

 Vector   13  Occ=0.000000D+00  E= 1.442276D+00
              MO Center=  2.9D-01,  3.6D-01,  2.5D-12, r^2= 1.2D+00
   Bfn.  Coefficient  Atom+Function         Bfn.  Coefficient  Atom+Function  
  ----- ------------  ---------------      ----- ------------  ---------------
    19      0.705843  2 H  pz                24     -0.651327  3 H  pz         

 Vector   14  Occ=0.000000D+00  E= 1.511099D+00
              MO Center= -6.7D-02, -8.7D-03, -1.2D-11, r^2= 1.5D+00
   Bfn.  Coefficient  Atom+Function         Bfn.  Coefficient  Atom+Function  
  ----- ------------  ---------------      ----- ------------  ---------------
     3      0.807240  1 O  s                  2     -0.720291  1 O  s          
    17      0.587380  2 H  px                 7     -0.567845  1 O  px         
    23      0.544293  3 H  py                 8     -0.392775  1 O  py         
     1     -0.293062  1 O  s                 22      0.255746  3 H  px         
     4      0.252227  1 O  px                21     -0.246333  3 H  s          

 Vector   15  Occ=0.000000D+00  E= 1.685402D+00
              MO Center=  2.4D-01,  1.7D-01,  3.3D-12, r^2= 1.4D+00
   Bfn.  Coefficient  Atom+Function         Bfn.  Coefficient  Atom+Function  
  ----- ------------  ---------------      ----- ------------  ---------------
    24      0.786975  3 H  pz                19      0.718597  2 H  pz         
     9     -0.667658  1 O  pz         


 center of mass
 --------------
 x =  -0.07599894 y =  -0.06683253 z =   0.00000000

 moments of inertia (a.u.)
 ------------------
           5.022616320791           1.275639466010           0.000000000000
           1.275639466010           2.833002082974           0.000000000000
           0.000000000000           0.000000000000           7.855618403765

  Mulliken analysis of the total density
  --------------------------------------

    Atom       Charge   Shell Charges
 -----------   ------   -------------------------------------------------------
    1 O    8     8.38   2.00  0.85  0.90  2.76  1.87  0.01
    2 H    1     0.79   0.58  0.15  0.05
    3 H    1     0.83   0.68  0.08  0.08

       Multipole analysis of the density wrt the origin
       ------------------------------------------------

     L   x y z        total         open         nuclear
     -   - - -        -----         ----         -------
     0   0 0 0     -0.000000      0.000000     10.000000

     1   1 0 0      0.596818      0.000000     -0.000000
     1   0 1 0      0.453568      0.000000      0.000000
     1   0 0 1     -0.000000      0.000000      0.000000

     2   2 0 0     -4.121350      0.000000      2.679864
     2   1 1 0     -0.780632      0.000000     -1.381060
     2   1 0 1      0.000000      0.000000      0.000000
     2   0 2 0     -3.187665      0.000000      4.882204
     2   0 1 1      0.000000      0.000000      0.000000
     2   0 0 2     -5.412826      0.000000      0.000000


 Parallel integral file used       1 records with       0 large values

                   NWChem Extensible Many-Electron Theory Module
                   ---------------------------------------------

              ======================================================
                   This portion of the program was automatically
                  generated by a Tensor Contraction Engine (TCE).
                  The development of this portion of the program
                 and TCE was supported by US Department of Energy,
                Office of Science, Office of Basic Energy Science.
                      TCE is a product of Battelle and PNNL.
              Please cite: S.Hirata, J.Phys.Chem.A 107, 9887 (2003).
              ======================================================

                                        H2O


            General Information
            -------------------
      Number of processors :     1
         Wavefunction type : Restricted Hartree-Fock
          No. of electrons :    10
           Alpha electrons :     5
            Beta electrons :     5
           No. of orbitals :    48
            Alpha orbitals :    24
             Beta orbitals :    24
        Alpha frozen cores :     0
         Beta frozen cores :     0
     Alpha frozen virtuals :     0
      Beta frozen virtuals :     0
         Spin multiplicity : singlet 
    Number of AO functions :    24
       Number of AO shells :    12
        Use of symmetry is : off
      Symmetry adaption is : off
         Schwarz screening : 0.10D-09

          Correlation Information
          -----------------------
          Calculation type : Coupled-cluster singles & doubles                           
   Perturbative correction : none                                                        
            Max iterations :      300
        Residual threshold : 0.10D-06
     T(0) DIIS level shift : 0.00D+00
     L(0) DIIS level shift : 0.00D+00
     T(1) DIIS level shift : 0.00D+00
     L(1) DIIS level shift : 0.00D+00
     T(R) DIIS level shift : 0.00D+00
     T(I) DIIS level shift : 0.00D+00
   CC-T/L Amplitude update :  5-th order DIIS
                I/O scheme : Global Array Library
        L-threshold :  0.10D-06
        EOM-threshold :  0.10D-06
 no EOMCCSD initial starts read in
 TCE RESTART OPTIONS
 READ_INT:   F
 WRITE_INT:  F
 READ_TA:    F
 WRITE_TA:   F
 READ_XA:    F
 WRITE_XA:   F
 READ_IN3:   F
 WRITE_IN3:  F
 SLICE:      F
 D4D5:       F
 quantumc:   F
 qrotation:  F
 pwtce:      F
 qducc:      T
 nacto:                         0
 nrotv:                         0
 nrot:                          0

            Memory Information
            ------------------
          Available GA space size is    1610612160 doubles
          Available MA space size is    1610610956 doubles

 Maximum block size        32 doubles

 tile_dim =     19

 Block   Spin    Irrep     Size     Offset   Alpha
 -------------------------------------------------
   1    alpha     a      5 doubles       0       1
   2    beta      a      5 doubles       5       1
   3    alpha     a     19 doubles      10       3
   4    beta      a     19 doubles      29       3

 Global array virtual files algorithm will be used

 Parallel file system coherency ......... OK

 #quartets = 3.081D+03 #integrals = 2.131D+04 #direct =  0.0% #cached =100.0%


 Integral file          = ./H2O.aoints.0
 Record size in doubles =  65536        No. of integs per rec  =  43688
 Max. records in memory =      4        Max. records in file   = 232358
 No. of bits per label  =      8        No. of bits per value  =     64


 Fock matrix recomputed
 1-e file size   =              576
 1-e file name   = ./H2O.f1
 Cpu & wall time / sec            0.0            0.0
 4-electron integrals stored in orbital form

 v2    file size   =           185666
 4-index algorithm nr.  13 is used
 imaxsize =       30
 imaxsize ichop =        0
 Cpu & wall time / sec            0.1            0.1
 T1-number-of-tasks                    1

 t1 file size   =               95
 t1 file name   = ./H2O.t1
 t1 file handle =       -998
 T2-number-of-boxes                    2

 t2 file size   =            18050
 t2 file name   = ./H2O.t2
 t2 file handle =       -996
CCSD iterations
 ---------------------------------------------------------
 Iter          Residuum       Correlation     Cpu    Wall 
 ---------------------------------------------------------
NEW TASK SCHEDULING
CCSD_T1_NTS --- OK
CCSD_T2_NTS --- OK
    1   0.9076856117328  -0.3749897069801     0.0     0.0
    2   1.5878861496052   0.0582861437272     0.0     0.0
    3   2.8632740555418  -0.7193862800652     0.0     0.0
    4   5.4693945653685   0.6522010806438     0.0     0.0
    5   8.8344639511063  -1.8682726474389     0.0     0.0
 MICROCYCLE DIIS UPDATE:                    5                    5
    6   0.0488855492511  -0.2165998448832     0.0     0.0
    7   0.0651511954451  -0.2237134486296     0.0     0.0
    8   0.1293587798172  -0.2075752966496     0.0     0.0
    9   0.2713529039815  -0.2216827870057     0.0     0.0
   10   0.5578640904749  -0.1021847255798     0.0     0.0
 MICROCYCLE DIIS UPDATE:                   10                    5
   11   0.0047608831260  -0.2214227420804     0.0     0.0
   12   0.0037700309193  -0.2211655084603     0.0     0.0
   13   0.0067922368300  -0.2215194513968     0.0     0.0
   14   0.0146182121509  -0.2209486687972     0.0     0.0
   15   0.0321450200803  -0.2221181835563     0.0     0.0
 MICROCYCLE DIIS UPDATE:                   15                    5
   16   0.0002541539592  -0.2213472868771     0.0     0.0
   17   0.0002379639640  -0.2213398125366     0.0     0.0
   18   0.0004231346254  -0.2213520328422     0.0     0.0
   19   0.0008503993851  -0.2213451962116     0.0     0.0
   20   0.0017949512262  -0.2213359920639     0.0     0.0
 MICROCYCLE DIIS UPDATE:                   20                    5
   21   0.0000307544355  -0.2213480766379     0.0     0.0
   22   0.0000263417881  -0.2213481301665     0.0     0.0
   23   0.0000412753764  -0.2213458364446     0.0     0.0
   24   0.0000832322185  -0.2213502520992     0.0     0.0
   25   0.0001740838622  -0.2213429203353     0.0     0.0
 MICROCYCLE DIIS UPDATE:                   25                    5
   26   0.0000055894502  -0.2213477003353     0.0     0.0
   27   0.0000061477255  -0.2213468478370     0.0     0.0
   28   0.0000113564308  -0.2213483509921     0.0     0.0
   29   0.0000233552516  -0.2213457601533     0.0     0.0
   30   0.0000494743408  -0.2213504044813     0.0     0.0
 MICROCYCLE DIIS UPDATE:                   30                    5
   31   0.0000008988307  -0.2213474240003     0.0     0.0
   32   0.0000007336059  -0.2213474524459     0.0     0.0
   33   0.0000011417253  -0.2213473344086     0.0     0.0
   34   0.0000022417257  -0.2213475789056     0.0     0.0
   35   0.0000046257755  -0.2213471157466     0.0     0.0
 MICROCYCLE DIIS UPDATE:                   35                    5
   36   0.0000001706246  -0.2213474282454     0.0     0.0
   37   0.0000002045208  -0.2213473980025     0.0     0.0
   38   0.0000003871862  -0.2213474497911     0.0     0.0
   39   0.0000008026446  -0.2213473585331     0.0     0.0
   40   0.0000017049860  -0.2213475240076     0.0     0.0
 MICROCYCLE DIIS UPDATE:                   40                    5
   41   0.0000000280702  -0.2213474171186     0.0     0.0
 -----------------------------------------------------------------
 Iterations converged
 CCSD correlation energy / hartree =        -0.221347417118571
 CCSD total energy / hartree       =       -76.215150290432561

 Singles contributions

 Doubles contributions
     6a   (alpha)     7a   (alpha) ---     4a   (alpha)     5a   (alpha)        0.0205695422
     6a   (alpha)     7a   (alpha) ---     5a   (alpha)     4a   (alpha)       -0.0205695422
     6a   (alpha)     8a   (alpha) ---     3a   (alpha)     5a   (alpha)        0.0260569555
     6a   (alpha)     8a   (alpha) ---     5a   (alpha)     3a   (alpha)       -0.0260569555
     7a   (alpha)     6a   (alpha) ---     4a   (alpha)     5a   (alpha)       -0.0205695422
     7a   (alpha)     6a   (alpha) ---     5a   (alpha)     4a   (alpha)        0.0205695422
     7a   (alpha)     8a   (alpha) ---     3a   (alpha)     4a   (alpha)        0.0250512630
     7a   (alpha)     8a   (alpha) ---     4a   (alpha)     3a   (alpha)       -0.0250512630
     8a   (alpha)     6a   (alpha) ---     3a   (alpha)     5a   (alpha)       -0.0260569555
     8a   (alpha)     6a   (alpha) ---     5a   (alpha)     3a   (alpha)        0.0260569555
     8a   (alpha)     7a   (alpha) ---     3a   (alpha)     4a   (alpha)       -0.0250512630
     8a   (alpha)     7a   (alpha) ---     4a   (alpha)     3a   (alpha)        0.0250512630
     6a   (alpha)     6a   (beta ) ---     5a   (alpha)     5a   (beta )       -0.1151696662
     6a   (alpha)     7a   (beta ) ---     5a   (alpha)     4a   (beta )       -0.0320908628
     6a   (alpha)     8a   (beta ) ---     5a   (alpha)     3a   (beta )       -0.0359355423
     7a   (alpha)     6a   (beta ) ---     4a   (alpha)     5a   (beta )       -0.0320908628
     7a   (alpha)     7a   (beta ) ---     4a   (alpha)     4a   (beta )       -0.0829085700
     7a   (alpha)     8a   (beta ) ---     4a   (alpha)     3a   (beta )       -0.0346407176
     8a   (alpha)     6a   (beta ) ---     3a   (alpha)     5a   (beta )       -0.0359355423
     8a   (alpha)     7a   (beta ) ---     3a   (alpha)     4a   (beta )       -0.0346407176
     8a   (alpha)     8a   (beta ) ---     3a   (alpha)     3a   (beta )       -0.0511723141
 Ground state specification:
 exp(T)|Ref>~(1+T)|Ref>
 ------- a(p)+/a(q) strings ----------

 singles norm

 doubles norm

 Reference string
  0.99343322875245488      :(1a)+ (2a)+ (3a)+ (4a)+ (5a)+ (1b)+ (2b)+ (3b)+ (4b)+ (5b)+ |0>

 Singles strings

 Doubles strings
 -0.11441337338996908      :(6a)+ (6b)+ (5b)  (5a)  (1a)+ (2a)+ (3a)+ (4a)+ (5a)+ (1b)+ (2b)+ (3b)+ (4b)+ (5b)+ |0>
 -------------------------------------
 enrep_tce =    8.3359340302424361     
  EHF(total)         =       -75.99380287
  Shift (HFtot-HFA)  =         0.00000000
 ALL OCCUPIED ORBITALS ARE ACTIVE IN DUCC --> NO SHIFT
 Number of active orbitals                    8
 Number of active alpha electrons                    5
 Number of active beta electrons                    5
  nos                    10
  nvs                    38
 noas                     5
 nobs                     5
 nvas                    19
 nvbs                    19
 nactv                     3
 DUCC MODEL =                     6
 NONHF =  T
 F-T1 correlation    =    9.8497507387111281E-007
 V-T1-T1 correlation =   -1.3382895950970859E-006
 V-T2 correlation    =  -0.22134706380406446     
 Total correlation   =  -0.22134741711858569     
 F-T1(Ext) correlation         =    2.5510369266333641E-005
 V-T1(Ext)-T1(Ext) correlation =    9.9974951449872217E-007
 V-T2(Ext) correlation         =  -0.12850670700623271     
 Total Ext correlation         =  -0.12848019688745188     
1-BODY TIME =    1.284 SECONDS.
  HHHH TIME =    1.559 SECONDS.
  PPPP TIME =    0.026 SECONDS.
  HHHP TIME =    0.531 SECONDS.
  PPPH TIME =    0.077 SECONDS.
  HPHP TIME =    0.286 SECONDS.
  HHPP TIME =    0.264 SECONDS.
 ONE-BODY UNITARY CHECK
 TWO-BODY UNITARY CHECK
                    1                    1                    1                    2  -1.3543350801029754E-012
                    1                    1                    1                    4   4.5422503461770448E-012
                    1                    1                    1                    5   2.6622206258952028E-012
                    1                    1                    2                    1   1.3543362663631442E-012
                    1                    1                    2                    4  -2.4399108036703299E-011
                    1                    1                    2                    5  -1.7184871435869754E-011
                    1                    1                    4                    1  -4.5422505327437869E-012
                    1                    1                    4                    2   2.4399108042975396E-011
                    1                    1                    4                    5  -4.7885353669351488E-012
                    1                    1                    5                    1  -2.6622205194815577E-012
                    1                    1                    5                    2   1.7184871443677149E-011
                    1                    1                    5                    4   4.7885353663884858E-012
                    1                    2                    1                    1   1.3543350801029754E-012
                    1                    2                    1                    4  -2.8713110014622067E-011
                    1                    2                    1                    5  -1.6729579527252625E-011
                    1                    2                    2                    1  -2.7451596551486546E-011
                    1                    2                    2                    2   5.3746810302321042E-011
                    1                    2                    2                    4   2.5275573127536699E-010
                    1                    2                    2                    5   1.4930347583264059E-010
                    1                    2                    3                    3  -2.1253278493427119E-011
                    1                    2                    4                    1   2.0880008659573956E-011
                    1                    2                    4                    2  -1.7476020977569284E-010
                    1                    2                    4                    4  -9.7071983180193924E-012
                    1                    2                    4                    5   1.7844154336110231E-011
                    1                    2                    5                    1   1.7258626819338652E-011
                    1                    2                    5                    2  -1.3336805444741362E-010
                    1                    2                    5                    4  -7.1713627356216397E-011
                    1                    2                    5                    5   1.4238332685734887E-012
                    1                    3                    2                    3  -2.6371941436176272E-010
                    1                    3                    3                    1   1.2121414982857459E-010
                    1                    3                    3                    2  -8.4811005267304562E-010
                    1                    3                    3                    4   4.7836464997508266E-010
                    1                    3                    3                    5   3.5885530658141818E-010
                    1                    3                    4                    3  -2.0212173081068929E-010
                    1                    3                    5                    3  -1.2371910006886422E-010
                    1                    4                    1                    1  -4.5422503461770448E-012
                    1                    4                    1                    2   2.8713110014622067E-011
                    1                    4                    1                    5  -7.7038132817452976E-012
                    1                    4                    2                    1   6.0875286582440236E-011
                    1                    4                    2                    2  -3.0666573962566126E-010
                    1                    4                    2                    4  -9.3373815623909451E-011
                    1                    4                    2                    5   4.1204801723426776E-011
                    1                    4                    3                    3   1.7165998497242879E-011
                    1                    4                    4                    1   4.2812420275595287E-011
                    1                    4                    4                    2  -3.2007407835266122E-010
                    1                    4                    4                    4   3.8794498160102127E-011
                    1                    4                    4                    5   2.6692698745778287E-010
                    1                    4                    5                    1  -1.7557597736805874E-011
                    1                    4                    5                    2   1.5643256091532609E-010
                    1                    4                    5                    4  -1.3121756632650250E-010
                    1                    4                    5                    5  -1.6578698544920577E-011
                    1                    5                    1                    1  -2.6622206258952028E-012
                    1                    5                    1                    2   1.6729579527252625E-011
                    1                    5                    1                    4   7.7038132817452976E-012
                    1                    5                    2                    1   4.9805109689216032E-011
                    1                    5                    2                    2  -2.7170477218780401E-010
                    1                    5                    2                    4  -2.2129299911619049E-011
                    1                    5                    2                    5  -8.8551480384446712E-011
                    1                    5                    3                    3   1.9149676907731021E-011
                    1                    5                    4                    1  -2.1983633663458235E-011
                    1                    5                    4                    2   1.4483140815119144E-010
                    1                    5                    4                    4   5.0689989983439187E-012
                    1                    5                    4                    5  -1.6820391694066794E-010
                    1                    5                    5                    1   1.3899215112189722E-011
                    1                    5                    5                    2  -4.5918120000765228E-011
                    1                    5                    5                    4   2.2744141032343679E-010
                    1                    5                    5                    5  -2.8712745469289312E-011
                    1                    6                    1                    7  -2.4269863896364541E-011
                    1                    6                    1                    9   6.1263077943962685E-012
                    1                    6                    1                   10   5.4382609526726355E-012
                    1                    6                    2                    6  -2.6538660158337279E-011
                    1                    6                    2                    7   1.3078728378079774E-010
                    1                    6                    2                    9  -1.0667389584509412E-010
                    1                    6                    2                   10  -3.8137528942175369E-011
                    1                    6                    3                    8  -1.1586110543193584E-010
                    1                    6                    4                    6   1.9590162825267043E-012
                    1                    6                    4                    7   1.3891586232023245E-011
                    1                    6                    4                    9  -3.5366886502741224E-011
                    1                    6                    4                   10   2.5576602467880516E-012
                    1                    6                    5                    6   3.7952974096810976E-012
                    1                    6                    5                    7  -7.3449807434095016E-012
                    1                    6                    5                    9   4.8092611490413439E-011
                    1                    6                    5                   10  -2.2402527749543211E-011
                    1                    6                    6                    2   2.2915391806321850E-011
                    1                    6                    6                    4  -1.5841217226864046E-012
                    1                    6                    6                    5  -2.7760294063483570E-012
                    1                    6                    7                    1   2.7893132248379970E-011
                    1                    6                    7                    2  -1.3078728378079774E-010
                    1                    6                    7                    4   8.2274785508790194E-011
                    1                    6                    7                    5   2.0952656927183955E-011
                    1                    6                    8                    3   1.1586110543193584E-010
                    1                    6                    9                    1  -6.5012023542365682E-012
                    1                    6                    9                    2   1.0507524104280686E-011
                    1                    6                    9                    4   3.5366886502741224E-011
                    1                    6                    9                    5  -7.3461970014065958E-012
                    1                    6                   10                    1  -6.4575289560053761E-012
                    1                    6                   10                    2   2.4529852758400916E-011
                    1                    6                   10                    4  -4.3304074735794895E-011
                    1                    6                   10                    5   2.2402527749543211E-011
                    1                    7                    1                    6   2.4269863896364541E-011
                    1                    7                    1                    9  -1.4009058670050312E-011
                    1                    7                    1                   10  -1.3086032257803026E-011
                    1                    7                    2                    6  -2.8425629905459715E-012
                    1                    7                    2                    7   3.8769479467071211E-010
                    1                    7                    2                    9  -1.5470700675396243E-011
                    1                    7                    2                   10   1.6482059510616875E-010
                    1                    7                    3                    8   5.6263737766015787E-010
                    1                    7                    4                    6   2.5630293894185474E-011
                    1                    7                    4                    7  -5.8521212875639605E-010
                    1                    7                    4                    9   2.9245652427567492E-010
                    1                    7                    4                   10  -6.0864740222647817E-011
                    1                    7                    5                    6   1.0737382337422385E-011
                    1                    7                    5                    7  -2.5078526581789884E-010
                    1                    7                    5                    9  -1.5219420938360900E-010
                    1                    7                    5                   10   3.6962779711990912E-010
                    1                    7                    6                    1  -2.2915391806321850E-011
                    1                    7                    6                    4  -1.4704020553230057E-011
                    1                    7                    6                    5  -3.6436047321647402E-012
                    1                    7                    7                    1  -2.4609425608446145E-011
                    1                    7                    7                    2  -3.3394798211461296E-010
                    1                    7                    7                    4   2.6822640115942153E-010
                    1                    7                    7                    5  -1.5517203841297622E-011
                    1                    7                    8                    3  -5.8389065457631339E-010
                    1                    7                    9                    1  -4.7503233985279891E-012
                    1                    7                    9                    2   4.1045195324149186E-010
                    1                    7                    9                    4  -3.0216373153590936E-010
                    1                    7                    9                    5   7.8708891617859655E-011
                    1                    7                   10                    1   6.5213095340466154E-012
                    1                    7                   10                    2   1.1741728509623295E-010
                    1                    7                   10                    4   8.0480584219513873E-011
                    1                    7                   10                    5  -3.6820396731584992E-010
                    1                    8                    2                    8   3.8674504050650871E-010
                    1                    8                    3                    6  -1.1696987128884118E-011
                    1                    8                    3                    7   8.1524790390696822E-010
                    1                    8                    3                    9  -8.8182783124224340E-011
                    1                    8                    3                   10  -6.3304762473737064E-011
                    1                    8                    4                    8  -3.0167423810747995E-010
                    1                    8                    5                    8  -1.9310779581296900E-010
                    1                    8                    7                    3  -6.5046456415585041E-010
                    1                    8                    8                    1   1.3290457623327256E-010
                    1                    8                    8                    2  -1.6633578490271583E-009
                    1                    8                    8                    4   5.6654745044654176E-010
                    1                    8                    8                    5   4.2216006428466568E-010
                    1                    8                    9                    3   9.9552492985321983E-011
                    1                    8                   10                    3   6.9388703116679551E-011
                    1                    9                    1                    6  -6.1263077943962685E-012
                    1                    9                    1                    7   1.4009058670050312E-011
                    1                    9                    1                   10  -4.3003066385605138E-012
                    1                    9                    2                    6   1.6974677739811650E-011
                    1                    9                    2                    7  -3.4399502473955734E-010
                    1                    9                    2                    9   1.0069309882426714E-010
                    1                    9                    2                   10  -5.0255314232999782E-012
                    1                    9                    3                    8  -2.5058977809466754E-010
                    1                    9                    4                    6  -7.9437498246015537E-012
                    1                    9                    4                    7   3.3832709550596363E-010
                    1                    9                    4                    9  -7.3745789769957826E-010
                    1                    9                    4                   10   7.0064240867417915E-012
                    1                    9                    5                    6  -5.0065585358027853E-012
                    1                    9                    5                    7   2.1867235886624536E-011
                    1                    9                    5                    9  -1.5609528361722191E-010
                    1                    9                    5                   10  -2.0420427284881248E-010
                    1                    9                    6                    1   1.5841217226864046E-012
                    1                    9                    6                    2   1.4704022287953533E-011
                    1                    9                    6                    5  -3.4034663108639673E-012
                    1                    9                    7                    1   4.3900625322501607E-011
                    1                    9                    7                    2   3.7329285062365214E-011
                    1                    9                    7                    4  -1.9406683898770538E-010
                    1                    9                    7                    5   4.6230336182492837E-011
                    1                    9                    8                    3   2.6775577848664467E-010
                    1                    9                    9                    1   5.0756288061393207E-011
                    1                    9                    9                    2  -6.5840123891075519E-010
                    1                    9                    9                    4   7.7625239656292644E-010
                    1                    9                    9                    5   2.5992055079429588E-010
                    1                    9                   10                    1  -1.2551085171175203E-011
                    1                    9                   10                    2   1.3456531874032895E-010
                    1                    9                   10                    4   2.4877726181177229E-011
                    1                    9                   10                    5   1.8762557349796816E-010
                    1                   10                    1                    6  -5.4382609526726355E-012
                    1                   10                    1                    7   1.3086032257803026E-011
                    1                   10                    1                    9   4.3003066385605138E-012
                    1                   10                    2                    6   1.0612305739038375E-011
                    1                   10                    2                    7  -1.3396221285044696E-010
                    1                   10                    2                    9  -5.8659785362458194E-011
                    1                   10                    2                   10  -1.8352966715817765E-011
                    1                   10                    3                    8  -1.9816528452898385E-010
                    1                   10                    4                    6  -7.3659238430945351E-012
                    1                   10                    4                    7   2.3140168058620458E-011
                    1                   10                    4                    9  -8.8041669007304924E-011
                    1                   10                    4                   10  -2.3007214557980993E-010
                    1                   10                    5                    6  -1.1507683694844673E-011
                    1                   10                    5                    7   3.0897124615736349E-010
                    1                   10                    5                    9  -3.1126364073014168E-011
                    1                   10                    5                   10  -3.6891167464608854E-010
                    1                   10                    6                    1   2.7760294063483570E-012
                    1                   10                    6                    2   3.6436064668882162E-012
                    1                   10                    6                    4   3.4034676119065743E-012
                    1                   10                    7                    1   3.9192763617856841E-011
                    1                   10                    7                    2  -1.3774255824480774E-010
                    1                   10                    7                    4   3.6530488920286097E-011
                    1                   10                    7                    5  -7.0198577853397559E-011
                    1                   10                    8                    3   2.1731496116506044E-010
                    1                   10                    9                    1  -1.4617640431424661E-011
                    1                   10                    9                    2   1.2169123456313991E-010
                    1                   10                    9                    4   9.3110665445178542E-011
                    1                   10                    9                    5   6.1868237095918932E-011
                    1                   10                   10                    1   2.5406343695522082E-011
                    1                   10                   10                    2  -3.5488930284072184E-010
                    1                   10                   10                    4   2.5856777136068487E-010
                    1                   10                   10                    5   3.4019893239284338E-010
[...]
    7    7    4    1        0.0072309364
    7    7    4    2        0.0689240202
    7    7    4    4        0.7462363522
    7    7    4    5        0.0054067392
    7    7    4    6        0.0085733329
    7    7    4    7        0.1112146537
    7    8    4    3        0.0289269809
    7    8    4    8        0.0058571454
    7    1    5    1        0.0010646490
    7    1    5    2       -0.0045400421
    7    1    5    4        0.0026896031
    7    1    5    5       -0.0046329678
    7    1    5    6       -0.0040998401
    7    1    5    7        0.0037001010
    7    2    5    1       -0.0034557594
    7    2    5    2       -0.0179776142
    7    2    5    4        0.0035141603
    7    2    5    5        0.0025725465
    7    2    5    6        0.0070737839
    7    2    5    7        0.0012059996
    7    3    5    3        0.0009703303
    7    3    5    8        0.0006047471
    7    4    5    1       -0.0018753829
    7    4    5    2        0.0037767282
    7    4    5    4        0.0108947737
    7    4    5    5        0.1379788152
    7    4    5    6        0.0993298575
    7    4    5    7       -0.0118232590
    7    5    5    1        0.0038869500
    7    5    5    2        0.0075613141
    7    5    5    4        0.0128567676
    7    5    5    5       -0.0067998262
    7    5    5    6       -0.0060774272
    7    5    5    7        0.0179468641
    7    6    5    1        0.0047424740
    7    6    5    2        0.0098778017
    7    6    5    4        0.0209749642
    7    6    5    5       -0.0017200227
    7    6    5    6        0.0006918564
    7    6    5    7        0.0192975247
    7    7    5    1       -0.0041355348
    7    7    5    2       -0.0149972081
    7    7    5    4        0.0054067392
    7    7    5    5        0.5370809530
    7    7    5    6        0.1810607433
    7    7    5    7       -0.0009648900
    7    8    5    3        0.0032534704
    7    8    5    8       -0.0002172338
    7    1    6    1        0.0037735796
    7    1    6    2       -0.0059572458
    7    1    6    4        0.0047708321
    7    1    6    5       -0.0039010105
    7    1    6    6       -0.0083394732
    7    1    6    7        0.0076678668
    7    2    6    1       -0.0054320768
    7    2    6    2       -0.0216938403
    7    2    6    4        0.0076279622
    7    2    6    5        0.0089715279
    7    2    6    6        0.0035805152
    7    2    6    7        0.0085173641
    7    3    6    3        0.0050071903
    7    3    6    8        0.0023865220
    7    4    6    1       -0.0039719699
    7    4    6    2        0.0124771974
    7    4    6    4        0.0168466548
    7    4    6    5        0.0950689723
    7    4    6    6        0.1645798918
    7    4    6    7       -0.0071820818
    7    5    6    1        0.0054097713
    7    5    6    2        0.0069004406
    7    5    6    4        0.0147651507
    7    5    6    5       -0.0052364233
    7    5    6    6       -0.0057867215
    7    5    6    7        0.0192975247
    7    6    6    1        0.0069145970
    7    6    6    2        0.0084194913
    7    6    6    4        0.0194610427
    7    6    6    5        0.0005592209
    7    6    6    6       -0.0036212952
    7    6    6    7        0.0278029897
    7    7    6    1       -0.0090946962
    7    7    6    2        0.0063831603
    7    7    6    4        0.0085733329
    7    7    6    5        0.1810607433
    7    7    6    6        0.5539122207
    7    7    6    7        0.0111184418
    7    8    6    3        0.0025964623
    7    8    6    8        0.0060065537
    7    1    7    1        0.0478109741
    7    1    7    2        0.0225423191
    7    1    7    4        0.0049081479
    7    1    7    5        0.0035014490
    7    1    7    6        0.0076588713
    7    1    7    7        0.0140751664
    7    2    7    1        0.0225423191
    7    2    7    2        0.0559495617
    7    2    7    4        0.0175953205
    7    2    7    5        0.0012887215
    7    2    7    6        0.0085793282
    7    2    7    7        0.0326189395
    7    3    7    3        0.0276040542
    7    3    7    8        0.0180576579
    7    4    7    1        0.0049081479
    7    4    7    2        0.0175953205
    7    4    7    4        0.1979661615
    7    4    7    5       -0.0129649493
    7    4    7    6       -0.0071455742
    7    4    7    7        0.1112146537
    7    5    7    1        0.0035014490
    7    5    7    2        0.0012887215
    7    5    7    4       -0.0129649493
    7    5    7    5        0.0199992805
    7    5    7    6        0.0197810002
    7    5    7    7       -0.0009648900
    7    6    7    1        0.0076588713
    7    6    7    2        0.0085793282
    7    6    7    4       -0.0071455742
    7    6    7    5        0.0197810002
    7    6    7    6        0.0277943483
    7    6    7    7        0.0111184418
    7    7    7    1        0.0140751664
    7    7    7    2        0.0326189395
    7    7    7    4        0.1112146537
    7    7    7    5       -0.0009648900
    7    7    7    6        0.0111184418
    7    7    7    7        0.7825722673
    7    8    7    3        0.0180576579
    7    8    7    8        0.0292876378
    7    1    8    3       -0.0046174903
    7    1    8    8       -0.0064099064
    7    2    8    3        0.0111405946
    7    2    8    8        0.0102899695
    7    3    8    1        0.0086133497
    7    3    8    2        0.0121475124
    7    3    8    4        0.0164718795
    7    3    8    5        0.0006226245
    7    3    8    6        0.0025544614
    7    3    8    7        0.0185330166
    7    4    8    3        0.1094582358
    7    4    8    8        0.1456732723
    7    5    8    3       -0.0073328953
    7    5    8    8       -0.0108066845
    7    6    8    3       -0.0048820128
    7    6    8    8       -0.0046318568
    7    7    8    3        0.1633213387
    7    7    8    8        0.5754521120
    7    8    8    1        0.0096164635
    7    8    8    2        0.0081157629
    7    8    8    4        0.0060620630
    7    8    8    5       -0.0001775838
    7    8    8    6        0.0060278406
    7    8    8    7        0.0292879635
    8    1    1    3        0.0347379723
    8    1    1    8        0.0450458121
    8    2    1    3        0.0176735272
    8    2    1    8        0.0233757428
    8    3    1    1        0.4855505510
    8    3    1    2        0.0062776810
    8    3    1    4       -0.0030791766
    8    3    1    5       -0.0020179701
    8    3    1    6       -0.0049719838
    8    3    1    7       -0.0050553892
    8    4    1    3        0.0033714426
    8    4    1    8        0.0039990620
    8    5    1    3        0.0025856858
    8    5    1    8        0.0029930559
    8    6    1    3        0.0067356533
    8    6    1    8        0.0093560991
    8    7    1    3        0.0069824238
    8    7    1    8        0.0096164635
    8    8    1    1        0.9972960010
    8    8    1    2        0.0070387079
    8    8    1    4       -0.0045148812
    8    8    1    5       -0.0031014978
    8    8    1    6       -0.0065041099
    8    8    1    7       -0.0064099064
    8    1    2    3        0.0336885058
    8    1    2    8        0.0233757428
    8    2    2    3        0.0491617482
    8    2    2    8        0.0454274890
    8    3    2    1        0.0064241419
    8    3    2    2        0.2019517929
    8    3    2    4       -0.0017934931
    8    3    2    5       -0.0017244914
    8    3    2    6        0.0125726752
    8    3    2    7        0.0092524395
    8    4    2    3        0.0023033196
    8    4    2    8        0.0044871468
    8    5    2    3        0.0009383746
    8    5    2    8        0.0036501576
    8    6    2    3        0.0254885632
    8    6    2    8        0.0084375655
    8    7    2    3        0.0255287064
    8    7    2    8        0.0081157629
    8    8    2    1        0.0070387079
    8    8    2    2        0.6398430550
    8    8    2    4        0.0049148474
    8    8    2    5        0.0022087482
    8    8    2    6        0.0145112287
    8    8    2    7        0.0102899695
    8    1    3    1        0.0340456946
    8    1    3    2        0.0341371881
    8    1    3    4        0.0076388387
    8    1    3    5        0.0058536262
    8    1    3    6        0.0085733298
    8    1    3    7        0.0086777064
    8    2    3    1        0.0190615170
    8    2    3    2        0.0501338879
    8    2    3    4        0.0066132972
    8    2    3    5        0.0049380641
    8    2    3    6        0.0123856919
    8    2    3    7        0.0118898160
    8    3    3    3        0.1969138474
    8    3    3    8        0.1522155035
    8    4    3    1        0.0034570538
    8    4    3    2        0.0025314460
    8    4    3    4        0.0058405626
    8    4    3    5        0.0011095219
    8    4    3    6        0.0030621867
    8    4    3    7        0.0169757543
    8    5    3    1        0.0026401999
    8    5    3    2        0.0010495466
    8    5    3    4        0.0009647901
    8    5    3    5        0.0046748944
    8    5    3    6        0.0148547779
    8    5    3    7        0.0006047471
    8    6    3    1        0.0067258265
    8    6    3    2        0.0256925058
    8    6    3    4        0.0073766570
    8    6    3    5        0.0245901209
    8    6    3    6        0.0187760024
    8    6    3    7        0.0023865220
    8    7    3    1        0.0069743603
    8    7    3    2        0.0257716118
    8    7    3    4        0.0289269809
    8    7    3    5        0.0032534704
    8    7    3    6        0.0025964623
    8    7    3    7        0.0180576579
    8    8    3    3        0.6566438027
    8    8    3    8        0.1642212771
    8    1    4    3        0.0076212727
    8    1    4    8        0.0039990620
    8    2    4    3        0.0059804918
    8    2    4    8        0.0044871468
    8    3    4    1       -0.0029297827
    8    3    4    2       -0.0017300554
    8    3    4    4        0.1366449345
    8    3    4    5        0.0054605528
    8    3    4    6        0.0087381459
    8    3    4    7        0.1133003569
    8    4    4    3        0.0052603643
    8    4    4    8        0.0168460408
    8    5    4    3        0.0009491002
    8    5    4    8        0.0013419460
    8    6    4    3        0.0075459054
    8    6    4    8        0.0009809475
    8    7    4    3        0.0284447539
    8    7    4    8        0.0060620630
    8    8    4    1       -0.0045148812
    8    8    4    2        0.0049148474
    8    8    4    4        0.5611544782
    8    8    4    5        0.0088744494
    8    8    4    6        0.0101781658
    8    8    4    7        0.1456732723
    8    1    5    3        0.0058460858
    8    1    5    8        0.0029930559
    8    2    5    3        0.0044240641
    8    2    5    8        0.0036501576
    8    3    5    1       -0.0018860367
    8    3    5    2       -0.0017987873
    8    3    5    4        0.0054969663
    8    3    5    5        0.1243063590
    8    3    5    6        0.1100828249
    8    3    5    7       -0.0072903459
    8    4    5    3        0.0010895993
    8    4    5    8        0.0013419460
    8    5    5    3        0.0041356187
    8    5    5    8        0.0160049569
    8    6    5    3        0.0240214219
    8    6    5    8        0.0061967738
    8    7    5    3        0.0034924247
    8    7    5    8       -0.0001775838
    8    8    5    1       -0.0031014978
    8    8    5    2        0.0022087482
    8    8    5    4        0.0088744494
    8    8    5    5        0.5343643770
    8    8    5    6        0.1526934385
    8    8    5    7       -0.0108066845
    8    1    6    3        0.0085163742
    8    1    6    8        0.0093560991
    8    2    6    3        0.0125286998
    8    2    6    8        0.0084375655
    8    3    6    1       -0.0045318532
    8    3    6    2        0.0142463762
    8    3    6    4        0.0081619727
    8    3    6    5        0.1061111337
    8    3    6    6        0.1552526665
    8    3    6    7       -0.0048121266
    8    4    6    3        0.0028982739
    8    4    6    8        0.0009809475
    8    5    6    3        0.0138992644
    8    5    6    8        0.0061967738
    8    6    6    3        0.0192822921
    8    6    6    8        0.0257904012
    8    7    6    3        0.0028016672
    8    7    6    8        0.0060278406
    8    8    6    1       -0.0065041099
    8    8    6    2        0.0145112287
    8    8    6    4        0.0101781658
    8    8    6    5        0.1526934385
    8    8    6    6        0.5525334702
    8    8    6    7       -0.0046318568
    8    1    7    3        0.0086133497
    8    1    7    8        0.0096164635
    8    2    7    3        0.0121475124
    8    2    7    8        0.0081157629
    8    3    7    1       -0.0046174903
    8    3    7    2        0.0111405946
    8    3    7    4        0.1094582358
    8    3    7    5       -0.0073328953
    8    3    7    6       -0.0048820128
    8    3    7    7        0.1633213387
    8    4    7    3        0.0164718795
    8    4    7    8        0.0060620630
    8    5    7    3        0.0006226245
    8    5    7    8       -0.0001775838
    8    6    7    3        0.0025544614
    8    6    7    8        0.0060278406
    8    7    7    3        0.0185330166
    8    7    7    8        0.0292879635
    8    8    7    1       -0.0064099064
    8    8    7    2        0.0102899695
    8    8    7    4        0.1456732723
    8    8    7    5       -0.0108066845
    8    8    7    6       -0.0046318568
    8    8    7    7        0.5754521120
    8    1    8    1        0.0446553019
    8    1    8    2        0.0241193268
    8    1    8    4        0.0038768658
    8    1    8    5        0.0028946187
    8    1    8    6        0.0093322774
    8    1    8    7        0.0095937427
    8    2    8    1        0.0241193268
    8    2    8    2        0.0496356404
    8    2    8    4        0.0050541536
    8    2    8    5        0.0041206103
    8    2    8    6        0.0088632220
    8    2    8    7        0.0085552324
    8    3    8    3        0.1516377121
    8    3    8    8        0.1642212771
    8    4    8    1        0.0038768658
    8    4    8    2        0.0050541536
    8    4    8    4        0.0162020864
    8    4    8    5        0.0013189404
    8    4    8    6        0.0008931370
    8    4    8    7        0.0058571454
    8    5    8    1        0.0028946187
    8    5    8    2        0.0041206103
    8    5    8    4        0.0013189404
    8    5    8    5        0.0162052488
    8    5    8    6        0.0059405108
    8    5    8    7       -0.0002172338
    8    6    8    1        0.0093322774
    8    6    8    2        0.0088632220
    8    6    8    4        0.0008931370
    8    6    8    5        0.0059405108
    8    6    8    6        0.0257865380
    8    6    8    7        0.0060065537
    8    7    8    1        0.0095937427
    8    7    8    2        0.0085552324
    8    7    8    4        0.0058571454
    8    7    8    5       -0.0002172338
    8    7    8    6        0.0060065537
    8    7    8    7        0.0292876378
    8    8    8    3        0.1642212771
    8    8    8    8        0.6047010992
 end_two_electron_integrals

 Parallel integral file used       1 records with       0 large values


 Task  times  cpu:        4.6s     wall:        4.9s


                                NWChem Input Module
                                -------------------


 Summary of allocated global arrays
-----------------------------------
  No active global arrays


MA_summarize_allocated_blocks: starting scan ...
MA_summarize_allocated_blocks: scan completed: 0 heap blocks, 0 stack blocks
MA usage statistics:

	allocation statistics:
					      heap	     stack
					      ----	     -----
	current number of blocks	         0	         0
	maximum number of blocks	        18	        42
	current total bytes		         0	         0
	maximum total bytes		   2175760	 141357496
	maximum total K-bytes		      2176	    141358
	maximum total M-bytes		         3	       142


                                     CITATION
                                     --------
                Please cite the following reference when publishing
                           results obtained with NWChem:

          E. Apra, E. J. Bylaska, W. A. de Jong, N. Govind, K. Kowalski,
       T. P. Straatsma, M. Valiev, H. J. J. van Dam, Y. Alexeev, J. Anchell,
       V. Anisimov, F. W. Aquino, R. Atta-Fynn, J. Autschbach, N. P. Bauman,
     J. C. Becca, D. E. Bernholdt, K. Bhaskaran-Nair, S. Bogatko, P. Borowski,
         J. Boschen, J. Brabec, A. Bruner, E. Cauet, Y. Chen, G. N. Chuev,
      C. J. Cramer, J. Daily, M. J. O. Deegan, T. H. Dunning Jr., M. Dupuis,
   K. G. Dyall, G. I. Fann, S. A. Fischer, A. Fonari, H. Fruchtl, L. Gagliardi,
      J. Garza, N. Gawande, S. Ghosh, K. Glaesemann, A. W. Gotz, J. Hammond,
       V. Helms, E. D. Hermes, K. Hirao, S. Hirata, M. Jacquelin, L. Jensen,
   B. G. Johnson, H. Jonsson, R. A. Kendall, M. Klemm, R. Kobayashi, V. Konkov,
      S. Krishnamoorthy, M. Krishnan, Z. Lin, R. D. Lins, R. J. Littlefield,
      A. J. Logsdail, K. Lopata, W. Ma, A. V. Marenich, J. Martin del Campo,
   D. Mejia-Rodriguez, J. E. Moore, J. M. Mullin, T. Nakajima, D. R. Nascimento,
    J. A. Nichols, P. J. Nichols, J. Nieplocha, A. Otero-de-la-Roza, B. Palmer,
    A. Panyala, T. Pirojsirikul, B. Peng, R. Peverati, J. Pittner, L. Pollack,
   R. M. Richard, P. Sadayappan, G. C. Schatz, W. A. Shelton, D. W. Silverstein,
   D. M. A. Smith, T. A. Soares, D. Song, M. Swart, H. L. Taylor, G. S. Thomas,
            V. Tipparaju, D. G. Truhlar, K. Tsemekhman, T. Van Voorhis,
      A. Vazquez-Mayagoitia, P. Verma, O. Villa, A. Vishnu, K. D. Vogiatzis,
        D. Wang, J. H. Weare, M. J. Williamson, T. L. Windus, K. Wolinski,
        A. T. Wong, Q. Wu, C. Yang, Q. Yu, M. Zacharias, Z. Zhang, Y. Zhao,
                                and R. J. Harrison
                        "NWChem: Past, present, and future
                         J. Chem. Phys. 152, 184102 (2020)
                               doi:10.1063/5.0004997

                                      AUTHORS
                                      -------
  E. Apra, E. J. Bylaska, N. Govind, K. Kowalski, M. Valiev, D. Mejia-Rodriguez,
       A. Kunitsa, N. P. Bauman, A. Panyala, W. A. de Jong, T. P. Straatsma,
        H. J. J. van Dam, D. Wang, T. L. Windus, J. Hammond, J. Autschbach,
    K. Bhaskaran-Nair, J. Brabec, K. Lopata, S. A. Fischer, S. Krishnamoorthy,
     M. Jacquelin, W. Ma, M. Klemm, O. Villa, Y. Chen, V. Anisimov, F. Aquino,
    S. Hirata, M. T. Hackler, Eric Hermes, L. Jensen, J. E. Moore, J. C. Becca,
      V. Konjkov, T. Risthaus, M. Malagoli, A. Marenich, A. Otero-de-la-Roza,
        J. Mullin, P. Nichols, R. Peverati, J. Pittner, Y. Zhao, P.-D. Fan,
        A. Fonari, M. J. Williamson, R. J. Harrison, J. R. Rehr, M. Dupuis,
     D. Silverstein, D. M. A. Smith, J. Nieplocha, V. Tipparaju, M. Krishnan,
     B. E. Van Kuiken, A. Vazquez-Mayagoitia, M. Swart, Q. Wu, T. Van Voorhis,
     A. A. Auer, M. Nooijen, L. D. Crosby, E. Brown, G. Cisneros, G. I. Fann,
   H. Fruchtl, J. Garza, K. Hirao, R. A. Kendall, J. A. Nichols, K. Tsemekhman,
    K. Wolinski, J. Anchell, D. E. Bernholdt, P. Borowski, T. Clark, D. Clerc,
   H. Dachsel, M. J. O. Deegan, K. Dyall, D. Elwood, E. Glendening, M. Gutowski,
   A. C. Hess, J. Jaffe, B. G. Johnson, J. Ju, R. Kobayashi, R. Kutteh, Z. Lin,
   R. Littlefield, X. Long, B. Meng, T. Nakajima, S. Niu, L. Pollack, M. Rosing,
   K. Glaesemann, G. Sandrone, M. Stave, H. Taylor, G. Thomas, J. H. van Lenthe,
                               A. T. Wong, Z. Zhang.

 Total times  cpu:        6.2s     wall:        7.7s
