 argument  1 = input.nw
  NWChem w/ OpenMP: maximum threads =    1



============================== echo of input deck ==============================
 echo
 start H2O
 title "H2O"

 memory total 24 gb

 geometry units bohr
 symmetry c1
        O  0.00000000  0.00000000  0.00000000
        H  0.00000000  3.4103825  0.00000000
        H  1.72558000 -0.64860000  0.00000000
 end

 basis spherical
   * library cc-pVDZ
 end

 mcscf
   active  8
   actelec 10
   multiplicity 1
   maxiter 40
   vectors input h2o.mos
   vectors output h2o.mos
 end

 task mcscf

 scf
   vectors input h2o.mos
   vectors output h2o-trash.mos
   noscf
 end

 tce
   2eorb
   2emet 13
   ccsd
   maxiter 300
 end

# set tce:print_integrals T
# set tce:qorb 8
# set tce:qela 5
# set tce:qelb 5

 set tce:qducc T
 set tce:nactv 3
 set tce:nonhf T
 set tce:ducc_model 6

 set tce:printtol 0.02

 task tce
================================================================================


                                         
                                         


             Northwest Computational Chemistry Package (NWChem) 7.0.1
             --------------------------------------------------------


                    Environmental Molecular Sciences Laboratory
                       Pacific Northwest National Laboratory
                                Richland, WA 99352

                              Copyright (c) 1994-2020
                       Pacific Northwest National Laboratory
                            Battelle Memorial Institute

             NWChem is an open-source computational chemistry package
                        distributed under the terms of the
                      Educational Community License (ECL) 2.0
             A copy of the license is included with this distribution
                              in the LICENSE.TXT file

                                  ACKNOWLEDGMENT
                                  --------------

            This software and its documentation were developed at the
            EMSL at Pacific Northwest National Laboratory, a multiprogram
            national laboratory, operated for the U.S. Department of Energy
            by Battelle under Contract Number DE-AC05-76RL01830. Support
            for this work was provided by the Department of Energy Office
            of Biological and Environmental Research, Office of Basic
            Energy Sciences, and the Office of Advanced Scientific Computing.


           Job information
           ---------------

    hostname        = WE46210
    program         = /home/baum612/code/nwchem/bin/LINUX64/nwchem
    date            = Wed Sep  4 02:29:45 2024

    compiled        = Wed_Sep_04_02:00:17_2024
    source          = /home/baum612/code/nwchem
    nwchem branch   = 7.0.0
    nwchem revision = nwchem_on_git-4191-g39d87d64de
    ga revision     = 5.8.1
    use scalapack   = F
    input           = input.nw
    prefix          = H2O.
    data base       = ./H2O.db
    status          = startup
    nproc           =        1
    time left       =     -1s



           Memory information
           ------------------

    heap     =  805306366 doubles =   6144.0 Mbytes
    stack    =  805306363 doubles =   6144.0 Mbytes
    global   = 1610612736 doubles =  12288.0 Mbytes (distinct from heap & stack)
    total    = 3221225465 doubles =  24576.0 Mbytes
    verify   = yes
    hardfail = no 


           Directory information
           ---------------------

  0 permanent = .
  0 scratch   = .




                                NWChem Input Module
                                -------------------


                                        H2O
                                        ---
 Turning off AUTOSYM since
 SYMMETRY directive was detected!


          ------
          auto-z
          ------
  autoz: The atoms group into disjoint clusters
 cluster   1:    1    3
 cluster   2:    2
 Connecting clusters   1   2 via atoms    1    2 r = 1.80
  autoz: regenerating connections with new bonds
  no constraints, skipping    0.0000000000000000     
  no constraints, skipping    0.0000000000000000     


                             Geometry "geometry" -> ""
                             -------------------------

 Output coordinates in a.u. (scale by  1.000000000 to convert to a.u.)

  No.       Tag          Charge          X              Y              Z
 ---- ---------------- ---------- -------------- -------------- --------------
    1 O                    8.0000    -0.17255800    -0.27617825     0.00000000
    2 H                    1.0000    -0.17255800     3.13420425     0.00000000
    3 H                    1.0000     1.55302200    -0.92477825     0.00000000

      Atomic Mass 
      ----------- 

      O                 15.994910
      H                  1.007825


 Effective nuclear repulsion energy (a.u.)       6.9121958592

            Nuclear Dipole moment (a.u.) 
            ----------------------------
        X                 Y               Z
 ---------------- ---------------- ----------------
    -0.0000000000     0.0000000000     0.0000000000



                                Z-matrix (autoz)
                                -------- 

 Units are Angstrom for bonds and degrees for angles

      Type          Name      I     J     K     L     M      Value
      ----------- --------  ----- ----- ----- ----- ----- ----------
    1 Stretch                  1     2                       1.80470
    2 Stretch                  1     3                       0.97551
    3 Bend                     2     1     3               110.59992


            XYZ format geometry
            -------------------
     3
 geometry
 O                    -0.09131377    -0.14614725     0.00000000
 H                    -0.09131377     1.65854958     0.00000000
 H                     0.82182391    -0.48937161     0.00000000

 ==============================================================================
                                internuclear distances
 ------------------------------------------------------------------------------
       center one      |      center two      | atomic units |       a.u.
 ------------------------------------------------------------------------------
    3 H                |   1 O                |     1.84345  |     1.84345
 ------------------------------------------------------------------------------
                         number of included internuclear distances:          1
 ==============================================================================





 Summary of "ao basis" -> "" (spherical)
 ------------------------------------------------------------------------------
       Tag                 Description            Shells   Functions and Types
 ---------------- ------------------------------  ------  ---------------------
 *                          cc-pVDZ                   on all atoms 


                      Basis "ao basis" -> "ao basis" (spherical)
                      -----
  O (Oxygen)
  ----------
            Exponent  Coefficients 
       -------------- ---------------------------------------------------------
  1 S  1.17200000E+04  0.000710
  1 S  1.75900000E+03  0.005470
  1 S  4.00800000E+02  0.027837
  1 S  1.13700000E+02  0.104800
  1 S  3.70300000E+01  0.283062
  1 S  1.32700000E+01  0.448719
  1 S  5.02500000E+00  0.270952
  1 S  1.01300000E+00  0.015458

  2 S  1.17200000E+04 -0.000160
  2 S  1.75900000E+03 -0.001263
  2 S  4.00800000E+02 -0.006267
  2 S  1.13700000E+02 -0.025716
  2 S  3.70300000E+01 -0.070924
  2 S  1.32700000E+01 -0.165411
  2 S  5.02500000E+00 -0.116955
  2 S  1.01300000E+00  0.557368

  3 S  3.02300000E-01  1.000000

  4 P  1.77000000E+01  0.043018
  4 P  3.85400000E+00  0.228913
  4 P  1.04600000E+00  0.508728

  5 P  2.75300000E-01  1.000000

  6 D  1.18500000E+00  1.000000

  H (Hydrogen)
  ------------
            Exponent  Coefficients 
       -------------- ---------------------------------------------------------
  1 S  1.30100000E+01  0.019685
  1 S  1.96200000E+00  0.137977
  1 S  4.44600000E-01  0.478148

  2 S  1.22000000E-01  1.000000

  3 P  7.27000000E-01  1.000000



 Summary of "ao basis" -> "ao basis" (spherical)
 ------------------------------------------------------------------------------
       Tag                 Description            Shells   Functions and Types
 ---------------- ------------------------------  ------  ---------------------
 O                          cc-pVDZ                  6       14   3s2p1d
 H                          cc-pVDZ                  3        5   2s1p



                            NWChem Direct MCSCF Module
                            --------------------------


                                        H2O


     -----------------------------------
       Basis functions:             24
       Inactive shells:              0
       Active shells:                8
       Active electrons:            10
       Symmetry:                    a       
       Multiplicity:                 1
       Orbital rotations:          128
     -----------------------------------

     -----------------------------------
       E2 extrapolation:             F
       Conjugacy:                    T
       Micro CI relax:               T
       Canonical orbitals:           T
       Maximum iterations:          40
       Converge threshold:    1.00E-04
       Conjugacy resets:            20
       Initial levelshift:        0.10
     -----------------------------------

 Loading old vectors from job with title :

H2O


   input molecular orbitals = ./h2o.mos
  output molecular orbtials = ./h2o.mos

       No. of determinants:          3136


  Starting Orbital Energies
   -20.601185    -1.291172    -0.653721    -0.526528    -0.462814    -0.100440
    -0.026011    -0.012062     0.468641     0.617074     1.068765     1.218129
     1.439616     1.464147     1.543056     1.599401     1.611210     2.079014
     2.319887     2.951072     3.034073     3.271262     3.281933     3.984435

  Orbital Symmetry Irreps
a    a    a    a    a    a    a    a    a    a    a    a    a    a    a   
a    a    a    a    a    a    a    a    a   

 #quartets = 3.081D+03 #integrals = 2.131D+04 #direct =  0.0% #cached =100.0%


 Integral file          = ./H2O.aoints.0
 Record size in doubles =  65536        No. of integs per rec  =  43688
 Max. records in memory =      4        Max. records in file   = 232331
 No. of bits per label  =      8        No. of bits per value  =     64




          %%%%% MacroIteration   1 %%%%%


          Number of sigma calls:       23
                       o<<<<< (aa):             0.00
                       o<<<<< (bb):             0.00
                       o<<<<< (ab):             0.06
                       o<<<<< (total)           0.06
                       o<<<<< (aa) ff           0.00
                       o<<<<< (aa) gop          0.00
                       o<<<<< (aa) dot          0.00
                       o<<<<< (ab) str          0.00
                       o<<<<< (ab) gath         0.00
                       o<<<<< (ab) dotab        0.00
                       o<<<<< (ab) scat         0.00
                       o<<<<< (ab) sync         0.00
                       o<<<<< Density           0.01
                       o<<<<< Density one       0.00
                       o<<<<< Density two       0.00
                       o<<<<< Density ab        0.01
                       o<<<<< Spin adapt        0.27
                       o<<<<< Symm adapt        0.00

                       o<<<<< (ab) max sync:      0.00

           >>>| Valence CI:            -82.889070786784
           >>>| MCSCF energy:          -75.976874927591
           >>>| Gradient norm:          0.226013636D-01

                              ----- Line search ------

        step       energy         lsg     num-lsg   num-lsh   lsrat    time
      ------- ---------------- --------- --------- --------- ------- --------
       0.0000     -75.97687493 -1.15D-04  0.00D+00  0.00D+00 0.0D+00      0.5

          Number of sigma calls:       22
                       o<<<<< (aa):             0.00
                       o<<<<< (bb):             0.00
                       o<<<<< (ab):             0.06
                       o<<<<< (total)           0.06
                       o<<<<< (aa) ff           0.00
                       o<<<<< (aa) gop          0.00
                       o<<<<< (aa) dot          0.00
                       o<<<<< (ab) str          0.00
                       o<<<<< (ab) gath         0.00
                       o<<<<< (ab) dotab        0.00
                       o<<<<< (ab) scat         0.00
                       o<<<<< (ab) sync         0.00
                       o<<<<< Density           0.01
                       o<<<<< Density one       0.00
                       o<<<<< Density two       0.00
                       o<<<<< Density ab        0.01
                       o<<<<< Spin adapt        0.35
                       o<<<<< Symm adapt        0.00

                       o<<<<< (ab) max sync:      0.00
       1.0000     -75.97694153 -1.82D-05 -1.83D-05  9.66D-05 1.6D-01      0.9

          Number of sigma calls:       20
                       o<<<<< (aa):             0.00
                       o<<<<< (bb):             0.00
                       o<<<<< (ab):             0.06
                       o<<<<< (total)           0.07
                       o<<<<< (aa) ff           0.00
                       o<<<<< (aa) gop          0.00
                       o<<<<< (aa) dot          0.00
                       o<<<<< (ab) str          0.00
                       o<<<<< (ab) gath         0.00
                       o<<<<< (ab) dotab        0.00
                       o<<<<< (ab) scat         0.00
                       o<<<<< (ab) sync         0.00
                       o<<<<< Density           0.00
                       o<<<<< Density one       0.00
                       o<<<<< Density two       0.00
                       o<<<<< Density ab        0.00
                       o<<<<< Spin adapt        0.39
                       o<<<<< Symm adapt        0.00

                       o<<<<< (ab) max sync:      0.00
       1.1880     -75.97694323  1.42D-07  1.38D-07  9.74D-05 1.2D-03      1.4
     --- Orbitals canonicalized ---



          %%%%% MacroIteration   2 %%%%%


          Number of sigma calls:       21
                       o<<<<< (aa):             0.00
                       o<<<<< (bb):             0.00
                       o<<<<< (ab):             0.06
                       o<<<<< (total)           0.07
                       o<<<<< (aa) ff           0.00
                       o<<<<< (aa) gop          0.00
                       o<<<<< (aa) dot          0.00
                       o<<<<< (ab) str          0.00
                       o<<<<< (ab) gath         0.00
                       o<<<<< (ab) dotab        0.00
                       o<<<<< (ab) scat         0.00
                       o<<<<< (ab) sync         0.00
                       o<<<<< Density           0.01
                       o<<<<< Density one       0.00
                       o<<<<< Density two       0.00
                       o<<<<< Density ab        0.01
                       o<<<<< Spin adapt        0.26
                       o<<<<< Symm adapt        0.00

                       o<<<<< (ab) max sync:      0.00

           >>>| Valence CI:            -82.889139084854
           >>>| MCSCF energy:          -75.976943225660
           >>>| Gradient norm:          0.344260896D-02
     --- Warning:    3 Hessian diagonals < 0.05 ---
     --- Conjugacy reset ---

                              ----- Line search ------

        step       energy         lsg     num-lsg   num-lsh   lsrat    time
      ------- ---------------- --------- --------- --------- ------- --------
       0.0000     -75.97694323 -3.64D-06  0.00D+00  0.00D+00 0.0D+00      1.8

          Number of sigma calls:       18
                       o<<<<< (aa):             0.00
                       o<<<<< (bb):             0.00
                       o<<<<< (ab):             0.06
                       o<<<<< (total)           0.07
                       o<<<<< (aa) ff           0.00
                       o<<<<< (aa) gop          0.00
                       o<<<<< (aa) dot          0.00
                       o<<<<< (ab) str          0.00
                       o<<<<< (ab) gath         0.00
                       o<<<<< (ab) dotab        0.00
                       o<<<<< (ab) scat         0.00
                       o<<<<< (ab) sync         0.00
                       o<<<<< Density           0.01
                       o<<<<< Density one       0.00
                       o<<<<< Density two       0.00
                       o<<<<< Density ab        0.01
                       o<<<<< Spin adapt        0.30
                       o<<<<< Symm adapt        0.00

                       o<<<<< (ab) max sync:      0.00
       1.0000     -75.97694537 -6.39D-07 -6.40D-07  3.00D-06 1.8D-01      2.2

          Number of sigma calls:       16
                       o<<<<< (aa):             0.00
                       o<<<<< (bb):             0.00
                       o<<<<< (ab):             0.05
                       o<<<<< (total)           0.06
                       o<<<<< (aa) ff           0.00
                       o<<<<< (aa) gop          0.00
                       o<<<<< (aa) dot          0.00
                       o<<<<< (ab) str          0.00
                       o<<<<< (ab) gath         0.00
                       o<<<<< (ab) dotab        0.00
                       o<<<<< (ab) scat         0.00
                       o<<<<< (ab) sync         0.00
                       o<<<<< Density           0.01
                       o<<<<< Density one       0.00
                       o<<<<< Density two       0.00
                       o<<<<< Density ab        0.01
                       o<<<<< Spin adapt        0.34
                       o<<<<< Symm adapt        0.00

                       o<<<<< (ab) max sync:      0.00
       1.2129     -75.97694543  1.10D-09  1.07D-09  3.01D-06 3.0D-04      2.7



          %%%%% MacroIteration   3 %%%%%


          Number of sigma calls:        1
                       o<<<<< (aa):             0.00
                       o<<<<< (bb):             0.00
                       o<<<<< (ab):             0.00
                       o<<<<< (total)           0.00
                       o<<<<< (aa) ff           0.00
                       o<<<<< (aa) gop          0.00
                       o<<<<< (aa) dot          0.00
                       o<<<<< (ab) str          0.00
                       o<<<<< (ab) gath         0.00
                       o<<<<< (ab) dotab        0.00
                       o<<<<< (ab) scat         0.00
                       o<<<<< (ab) sync         0.00
                       o<<<<< Density           0.01
                       o<<<<< Density one       0.00
                       o<<<<< Density two       0.00
                       o<<<<< Density ab        0.01
                       o<<<<< Spin adapt        0.00
                       o<<<<< Symm adapt        0.00

                       o<<<<< (ab) max sync:      0.00

           >>>| Valence CI:            -82.889141292853
           >>>| MCSCF energy:          -75.976945433660
           >>>| Gradient norm:          0.718260110D-03
     --- Warning:    3 Hessian diagonals < 0.05 ---

                              ----- Line search ------

        step       energy         lsg     num-lsg   num-lsh   lsrat    time
      ------- ---------------- --------- --------- --------- ------- --------
       0.0000     -75.97694543 -1.38D-07  0.00D+00  0.00D+00 0.0D+00      2.7

          Number of sigma calls:       16
                       o<<<<< (aa):             0.00
                       o<<<<< (bb):             0.00
                       o<<<<< (ab):             0.05
                       o<<<<< (total)           0.06
                       o<<<<< (aa) ff           0.00
                       o<<<<< (aa) gop          0.00
                       o<<<<< (aa) dot          0.00
                       o<<<<< (ab) str          0.00
                       o<<<<< (ab) gath         0.00
                       o<<<<< (ab) dotab        0.00
                       o<<<<< (ab) scat         0.00
                       o<<<<< (ab) sync         0.00
                       o<<<<< Density           0.01
                       o<<<<< Density one       0.00
                       o<<<<< Density two       0.00
                       o<<<<< Density ab        0.01
                       o<<<<< Spin adapt        0.33
                       o<<<<< Symm adapt        0.00

                       o<<<<< (ab) max sync:      0.00
       1.0000     -75.97694551 -2.07D-08 -2.07D-08  1.17D-07 1.5D-01      3.1

          Number of sigma calls:       12
                       o<<<<< (aa):             0.00
                       o<<<<< (bb):             0.00
                       o<<<<< (ab):             0.04
                       o<<<<< (total)           0.04
                       o<<<<< (aa) ff           0.00
                       o<<<<< (aa) gop          0.00
                       o<<<<< (aa) dot          0.00
                       o<<<<< (ab) str          0.00
                       o<<<<< (ab) gath         0.00
                       o<<<<< (ab) dotab        0.00
                       o<<<<< (ab) scat         0.00
                       o<<<<< (ab) sync         0.00
                       o<<<<< Density           0.01
                       o<<<<< Density one       0.00
                       o<<<<< Density two       0.00
                       o<<<<< Density ab        0.01
                       o<<<<< Spin adapt        0.22
                       o<<<<< Symm adapt        0.00

                       o<<<<< (ab) max sync:      0.00
       1.1765     -75.97694551  1.60D-12  2.79D-12  1.17D-07 1.2D-05      3.4



          %%%%% MacroIteration   4 %%%%%


          Number of sigma calls:        1
                       o<<<<< (aa):             0.00
                       o<<<<< (bb):             0.00
                       o<<<<< (ab):             0.00
                       o<<<<< (total)           0.00
                       o<<<<< (aa) ff           0.00
                       o<<<<< (aa) gop          0.00
                       o<<<<< (aa) dot          0.00
                       o<<<<< (ab) str          0.00
                       o<<<<< (ab) gath         0.00
                       o<<<<< (ab) dotab        0.00
                       o<<<<< (ab) scat         0.00
                       o<<<<< (ab) sync         0.00
                       o<<<<< Density           0.01
                       o<<<<< Density one       0.00
                       o<<<<< Density two       0.00
                       o<<<<< Density ab        0.00
                       o<<<<< Spin adapt        0.00
                       o<<<<< Symm adapt        0.00

                       o<<<<< (ab) max sync:      0.00

           >>>| Valence CI:            -82.889141373967
           >>>| MCSCF energy:          -75.976945514773
           >>>| Gradient norm:          0.117925349D-03
     --- Warning:    3 Hessian diagonals < 0.05 ---

                              ----- Line search ------

        step       energy         lsg     num-lsg   num-lsh   lsrat    time
      ------- ---------------- --------- --------- --------- ------- --------
       0.0000     -75.97694551 -4.90D-09  0.00D+00  0.00D+00 0.0D+00      3.4

          Number of sigma calls:       13
                       o<<<<< (aa):             0.00
                       o<<<<< (bb):             0.00
                       o<<<<< (ab):             0.03
                       o<<<<< (total)           0.04
                       o<<<<< (aa) ff           0.00
                       o<<<<< (aa) gop          0.00
                       o<<<<< (aa) dot          0.00
                       o<<<<< (ab) str          0.00
                       o<<<<< (ab) gath         0.00
                       o<<<<< (ab) dotab        0.00
                       o<<<<< (ab) scat         0.00
                       o<<<<< (ab) sync         0.00
                       o<<<<< Density           0.01
                       o<<<<< Density one       0.00
                       o<<<<< Density two       0.00
                       o<<<<< Density ab        0.00
                       o<<<<< Spin adapt        0.25
                       o<<<<< Symm adapt        0.00

                       o<<<<< (ab) max sync:      0.00
       1.0000     -75.97694552 -1.19D-09 -1.19D-09  3.71D-09 2.4D-01      3.8

          Number of sigma calls:       11
                       o<<<<< (aa):             0.00
                       o<<<<< (bb):             0.00
                       o<<<<< (ab):             0.03
                       o<<<<< (total)           0.03
                       o<<<<< (aa) ff           0.00
                       o<<<<< (aa) gop          0.00
                       o<<<<< (aa) dot          0.00
                       o<<<<< (ab) str          0.00
                       o<<<<< (ab) gath         0.00
                       o<<<<< (ab) dotab        0.00
                       o<<<<< (ab) scat         0.00
                       o<<<<< (ab) sync         0.00
                       o<<<<< Density           0.01
                       o<<<<< Density one       0.00
                       o<<<<< Density two       0.00
                       o<<<<< Density ab        0.01
                       o<<<<< Spin adapt        0.24
                       o<<<<< Symm adapt        0.00

                       o<<<<< (ab) max sync:      0.00
       1.3198     -75.97694552 -2.03D-14 -7.25D-13  3.71D-09 4.1D-06      4.1



          %%%%% MacroIteration   5 %%%%%


          Number of sigma calls:        1
                       o<<<<< (aa):             0.00
                       o<<<<< (bb):             0.00
                       o<<<<< (ab):             0.00
                       o<<<<< (total)           0.00
                       o<<<<< (aa) ff           0.00
                       o<<<<< (aa) gop          0.00
                       o<<<<< (aa) dot          0.00
                       o<<<<< (ab) str          0.00
                       o<<<<< (ab) gath         0.00
                       o<<<<< (ab) dotab        0.00
                       o<<<<< (ab) scat         0.00
                       o<<<<< (ab) sync         0.00
                       o<<<<< Density           0.01
                       o<<<<< Density one       0.00
                       o<<<<< Density two       0.00
                       o<<<<< Density ab        0.01
                       o<<<<< Spin adapt        0.00
                       o<<<<< Symm adapt        0.00

                       o<<<<< (ab) max sync:      0.00

           >>>| Valence CI:            -82.889141377201
           >>>| MCSCF energy:          -75.976945518008
           >>>| Gradient norm:          0.117030883D-04




     ==============================
            MCSCF Converged
     ==============================



          Canonical Eigenvalues

              1      
    1  -20.6035
    2   -1.2925
    3   -0.6549
    4   -0.5285
    5   -0.4537
    6   -0.1087
    7   -0.0260
    8   -0.0120
    9    0.4654
   10    0.6255
   11    1.0731
   12    1.2030
   13    1.4402
   14    1.4675
   15    1.5406
   16    1.5924
   17    1.6057
   18    2.0610
   19    2.3155
   20    2.9473
   21    3.0100
   22    3.2664
   23    3.2799
   24    3.9816


          Converged CI vector

   Index           Coefficient          Config. Occupation
         1          0.90130438          1  2  3  4  5  1  2  3  4  5
         2          0.12567527          1  2  3  4  5  1  2  3  4  6
        23         -0.05794340          1  2  3  4  5  1  2  3  5  8
         9          0.03714542          1  2  3  4  5  1  2  4  5  7
        41         -0.02332552          1  2  3  4  5  1  2  5  7  8
        57          0.12567527          1  2  3  4  6  1  2  3  4  5
        58         -0.34472312          1  2  3  4  6  1  2  3  4  6
        83          0.02687161          1  2  3  4  6  1  2  3  6  8
        60         -0.04170142          1  2  3  4  6  1  2  4  5  6
      1233         -0.05794340          1  2  3  5  8  1  2  3  4  5
      1255         -0.04640765          1  2  3  5  8  1  2  3  5  8
      1241          0.02913568          1  2  3  5  8  1  2  4  5  7
      1458          0.02687161          1  2  3  6  8  1  2  3  4  6
      1483          0.02072467          1  2  3  6  8  1  2  3  6  8
       170         -0.04170142          1  2  4  5  6  1  2  3  4  6
       449          0.03714542          1  2  4  5  7  1  2  3  4  5
       471          0.02913568          1  2  4  5  7  1  2  3  5  8
       457         -0.06722670          1  2  4  5  7  1  2  4  5  7
       458         -0.02840135          1  2  4  5  7  1  3  4  5  7
       685          0.02833284          1  2  4  6  7  1  2  4  6  7
      2241         -0.02332552          1  2  5  7  8  1  2  3  4  5
       513         -0.02840135          1  3  4  5  7  1  2  4  5  7
       514         -0.02696471          1  3  4  5  7  1  3  4  5  7

          Number of sigma calls:        1
                       o<<<<< (aa):             0.00
                       o<<<<< (bb):             0.00
                       o<<<<< (ab):             0.00
                       o<<<<< (total)           0.00
                       o<<<<< (aa) ff           0.00
                       o<<<<< (aa) gop          0.00
                       o<<<<< (aa) dot          0.00
                       o<<<<< (ab) str          0.00
                       o<<<<< (ab) gath         0.00
                       o<<<<< (ab) dotab        0.00
                       o<<<<< (ab) scat         0.00
                       o<<<<< (ab) sync         0.00
                       o<<<<< Density           0.01
                       o<<<<< Density one       0.00
                       o<<<<< Density two       0.00
                       o<<<<< Density ab        0.01
                       o<<<<< Spin adapt        0.00
                       o<<<<< Symm adapt        0.00

                       o<<<<< (ab) max sync:      0.00



          Natural orbital occupation numbers

              1      
    1    2.0000
    2    1.9981
    3    1.9847
    4    1.9740
    5    1.7220
    6    0.2794
    7    0.0270
    8    0.0147


          Number of sigma calls:       23
                       o<<<<< (aa):             0.00
                       o<<<<< (bb):             0.00
                       o<<<<< (ab):             0.07
                       o<<<<< (total)           0.08
                       o<<<<< (aa) ff           0.00
                       o<<<<< (aa) gop          0.00
                       o<<<<< (aa) dot          0.00
                       o<<<<< (ab) str          0.00
                       o<<<<< (ab) gath         0.00
                       o<<<<< (ab) dotab        0.00
                       o<<<<< (ab) scat         0.00
                       o<<<<< (ab) sync         0.00
                       o<<<<< Density           0.01
                       o<<<<< Density one       0.00
                       o<<<<< Density two       0.00
                       o<<<<< Density ab        0.01
                       o<<<<< Spin adapt        0.31
                       o<<<<< Symm adapt        0.00

                       o<<<<< (ab) max sync:      0.00


       Final MCSCF results 
       ------------------- 

       Total MCSCF energy =    -75.976945518008
            Gradient norm =      1.2D-05

    CPU time for solution =      4.5s
   Wall time for solution =      8.3s



                        Analysis of MCSCF natural orbitals
                        ----------------------------------

 Vector    1  Occ=1.999993D+00  E=-2.060351D+01  Symmetry=a
              MO Center= -9.1D-02, -1.5D-01,  3.6D-14, r^2= 1.5D-02
   Bfn.  Coefficient  Atom+Function         Bfn.  Coefficient  Atom+Function  
  ----- ------------  ---------------      ----- ------------  ---------------
     1      0.999904  1 O  s          

 Vector    2  Occ=1.998149D+00  E=-1.292541D+00  Symmetry=a
              MO Center= -2.8D-01, -1.3D-01, -2.0D-11, r^2= 4.2D-01
   Bfn.  Coefficient  Atom+Function         Bfn.  Coefficient  Atom+Function  
  ----- ------------  ---------------      ----- ------------  ---------------
     3      0.560817  1 O  s                  2      0.478238  1 O  s          
     4     -0.178012  1 O  px         

 Vector    3  Occ=1.984707D+00  E=-6.549265D-01  Symmetry=a
              MO Center= -7.1D-02, -1.5D-01,  2.1D-11, r^2= 5.9D-01
   Bfn.  Coefficient  Atom+Function         Bfn.  Coefficient  Atom+Function  
  ----- ------------  ---------------      ----- ------------  ---------------
     6      0.644098  1 O  pz                 9      0.493186  1 O  pz         

 Vector    4  Occ=1.974036D+00  E=-5.285029D-01  Symmetry=a
              MO Center=  3.5D-01, -2.9D-01,  6.7D-14, r^2= 5.7D-01
   Bfn.  Coefficient  Atom+Function         Bfn.  Coefficient  Atom+Function  
  ----- ------------  ---------------      ----- ------------  ---------------
     4      0.487916  1 O  px                20      0.437322  3 H  s          
     7      0.246981  1 O  px         

 Vector    5  Occ=1.722027D+00  E=-4.537336D-01  Symmetry=a
              MO Center= -6.7D-02,  6.7D-01,  4.0D-13, r^2= 1.4D+00
   Bfn.  Coefficient  Atom+Function         Bfn.  Coefficient  Atom+Function  
  ----- ------------  ---------------      ----- ------------  ---------------
     5      0.434067  1 O  py                15      0.358159  2 H  s          
    16      0.308903  2 H  s                  8      0.305052  1 O  py         

 Vector    6  Occ=2.794474D-01  E=-1.087268D-01  Symmetry=a
              MO Center= -7.8D-02,  8.7D-01, -2.1D-14, r^2= 1.5D+00
   Bfn.  Coefficient  Atom+Function         Bfn.  Coefficient  Atom+Function  
  ----- ------------  ---------------      ----- ------------  ---------------
     5      0.551018  1 O  py                15     -0.518526  2 H  s          
    16     -0.364302  2 H  s                  8      0.269810  1 O  py         

 Vector    7  Occ=2.695447D-02  E=-2.600710D-02  Symmetry=a
              MO Center=  5.2D-01, -3.6D-01, -1.1D-12, r^2= 6.1D-01
   Bfn.  Coefficient  Atom+Function         Bfn.  Coefficient  Atom+Function  
  ----- ------------  ---------------      ----- ------------  ---------------
     4      0.801207  1 O  px                20     -0.799903  3 H  s          
     2      0.322179  1 O  s                  5     -0.243798  1 O  py         
     3      0.215267  1 O  s                 21     -0.188284  3 H  s          

 Vector    8  Occ=1.468591D-02  E=-1.197695D-02  Symmetry=a
              MO Center= -2.6D-02, -1.7D-01,  2.7D-11, r^2= 1.1D+00
   Bfn.  Coefficient  Atom+Function         Bfn.  Coefficient  Atom+Function  
  ----- ------------  ---------------      ----- ------------  ---------------
     9     -0.973344  1 O  pz                 6      0.952249  1 O  pz         

 Vector    9  Occ=0.000000D+00  E= 4.653553D-01  Symmetry=a
              MO Center=  1.1D+00, -6.4D-01, -7.0D-12, r^2= 2.6D+00
   Bfn.  Coefficient  Atom+Function         Bfn.  Coefficient  Atom+Function  
  ----- ------------  ---------------      ----- ------------  ---------------
    21      1.711110  3 H  s                  3     -0.817947  1 O  s          
    20     -0.631726  3 H  s                  7     -0.432492  1 O  px         
    22     -0.195458  3 H  px                 4      0.176597  1 O  px         

 Vector   10  Occ=0.000000D+00  E= 6.255049D-01  Symmetry=a
              MO Center= -1.1D-01,  1.9D+00,  1.6D-12, r^2= 2.1D+00
   Bfn.  Coefficient  Atom+Function         Bfn.  Coefficient  Atom+Function  
  ----- ------------  ---------------      ----- ------------  ---------------
    16      1.484149  2 H  s                 15     -1.188305  2 H  s          
    21     -0.355467  3 H  s                  8     -0.327793  1 O  py         
     3     -0.160250  1 O  s          

 Vector   11  Occ=0.000000D+00  E= 1.073099D+00  Symmetry=a
              MO Center= -3.4D-01,  1.1D-01, -1.7D-12, r^2= 1.4D+00
   Bfn.  Coefficient  Atom+Function         Bfn.  Coefficient  Atom+Function  
  ----- ------------  ---------------      ----- ------------  ---------------
     7      1.435426  1 O  px                20     -1.117298  3 H  s          
     3      0.539502  1 O  s                  4     -0.506627  1 O  px         
     8     -0.289690  1 O  py                17      0.244336  2 H  px         
    22      0.169096  3 H  px                21     -0.167507  3 H  s          
     2      0.154906  1 O  s          

 Vector   12  Occ=0.000000D+00  E= 1.202975D+00  Symmetry=a
              MO Center= -8.0D-02,  3.9D-01,  2.3D-13, r^2= 1.6D+00
   Bfn.  Coefficient  Atom+Function         Bfn.  Coefficient  Atom+Function  
  ----- ------------  ---------------      ----- ------------  ---------------
     8      0.951490  1 O  py                 5     -0.781218  1 O  py         
    18     -0.341454  2 H  py                15     -0.323936  2 H  s          
    20      0.172708  3 H  s          

 Vector   13  Occ=0.000000D+00  E= 1.440225D+00  Symmetry=a
              MO Center=  3.4D-01,  9.9D-02, -6.1D-12, r^2= 1.8D+00
   Bfn.  Coefficient  Atom+Function         Bfn.  Coefficient  Atom+Function  
  ----- ------------  ---------------      ----- ------------  ---------------
     3      1.072113  1 O  s                  2     -0.714300  1 O  s          
    23     -0.623422  3 H  py                18     -0.534811  2 H  py         
    21     -0.446664  3 H  s                  7      0.366277  1 O  px         
     8     -0.357120  1 O  py                 1     -0.303311  1 O  s          
    20     -0.303770  3 H  s                  5      0.261865  1 O  py         

 Vector   14  Occ=0.000000D+00  E= 1.467516D+00  Symmetry=a
              MO Center=  1.9D-01,  8.7D-01,  1.5D-12, r^2= 1.7D+00
   Bfn.  Coefficient  Atom+Function         Bfn.  Coefficient  Atom+Function  
  ----- ------------  ---------------      ----- ------------  ---------------
    19      0.777637  2 H  pz                24     -0.616759  3 H  pz         
     9      0.238588  1 O  pz         

 Vector   15  Occ=0.000000D+00  E= 1.540631D+00  Symmetry=a
              MO Center= -9.6D-02,  1.1D+00, -4.2D-13, r^2= 1.5D+00
   Bfn.  Coefficient  Atom+Function         Bfn.  Coefficient  Atom+Function  
  ----- ------------  ---------------      ----- ------------  ---------------
    17      0.877777  2 H  px                 3      0.457606  1 O  s          
     2     -0.442094  1 O  s                  7     -0.378129  1 O  px         
    23      0.314714  3 H  py                20      0.194538  3 H  s          
     4      0.191403  1 O  px                 1     -0.178021  1 O  s          
    21     -0.173947  3 H  s          

 Vector   16  Occ=0.000000D+00  E= 1.592433D+00  Symmetry=a
              MO Center=  3.1D-01,  3.6D-01,  1.1D-11, r^2= 1.9D+00
   Bfn.  Coefficient  Atom+Function         Bfn.  Coefficient  Atom+Function  
  ----- ------------  ---------------      ----- ------------  ---------------
    24      0.797806  3 H  pz                19      0.632484  2 H  pz         
     9     -0.504549  1 O  pz         

 Vector   17  Occ=0.000000D+00  E= 1.605740D+00  Symmetry=a
              MO Center=  2.6D-01, -8.7D-02, -1.7D-11, r^2= 1.7D+00
   Bfn.  Coefficient  Atom+Function         Bfn.  Coefficient  Atom+Function  
  ----- ------------  ---------------      ----- ------------  ---------------
     3      1.559019  1 O  s                  2     -0.999563  1 O  s          
     8     -0.648531  1 O  py                20     -0.549785  3 H  s          
    23      0.541181  3 H  py                21     -0.474673  3 H  s          
     7      0.471465  1 O  px                 1     -0.437278  1 O  s          
    17     -0.407200  2 H  px                22      0.400613  3 H  px         

 Vector   18  Occ=0.000000D+00  E= 2.060976D+00  Symmetry=a
              MO Center=  8.2D-03,  7.3D-01, -9.1D-12, r^2= 1.6D+00
   Bfn.  Coefficient  Atom+Function         Bfn.  Coefficient  Atom+Function  
  ----- ------------  ---------------      ----- ------------  ---------------
     3      1.389421  1 O  s                  2     -1.078954  1 O  s          
    18      0.827553  2 H  py                 8      0.709364  1 O  py         
     1     -0.474723  1 O  s                 16     -0.368042  2 H  s          
    23     -0.351598  3 H  py                 5     -0.310258  1 O  py         
    20     -0.260294  3 H  s                  7      0.251913  1 O  px         


 Wrote Lagrangian and 1- and 2-particle density matrices to ./H2O.mcpdm


     Multipole analysis of the density
     ---------------------------------

     L   x y z        total        nuclear
     -   - - -        -----        -------
     0   0 0 0     -0.000000     10.000000

     1   1 0 0      0.594723     -0.000000
     1   0 1 0      0.071239      0.000000
     1   0 0 1     -0.000000      0.000000

     2   2 0 0     -4.389343      2.679864
     2   1 1 0     -0.647625     -1.595779
     2   1 0 1      0.000000      0.000000
     2   0 2 0     -3.522116     11.288646
     2   0 1 1     -0.000000      0.000000
     2   0 0 2     -5.727371      0.000000


  Mulliken analysis of the total density
  --------------------------------------

    Atom       Charge   Shell Charges
 -----------   ------   -------------------------------------------------------
    1 O    8     8.24   2.00  0.88  0.96  2.65  1.74  0.01
    2 H    1     0.93   0.51  0.42  0.00
    3 H    1     0.83   0.69  0.07  0.07

    Mulliken analysis of the active space density
    ---------------------------------------------

    Atom       Charge   Shell Charges
 -----------   ------   -------------------------------------------------------
    1 O    8     8.24   2.00  0.88  0.96  2.65  1.74  0.01
    2 H    1     0.93   0.51  0.42  0.00
    3 H    1     0.83   0.69  0.07  0.07

 Parallel integral file used       1 records with       0 large values


 Task  times  cpu:        4.5s     wall:        8.3s


                                NWChem Input Module
                                -------------------


                                 NWChem SCF Module
                                 -----------------


                                        H2O



  ao basis        = "ao basis"
  functions       =    24
  atoms           =     3
  closed shells   =     5
  open shells     =     0
  charge          =   0.00
  wavefunction    = RHF 
  input vectors   = ./h2o.mos
  output vectors  = ./h2o-trash.mos
  use symmetry    = F
  symmetry adapt  = F


 Summary of "ao basis" -> "ao basis" (spherical)
 ------------------------------------------------------------------------------
       Tag                 Description            Shells   Functions and Types
 ---------------- ------------------------------  ------  ---------------------
 O                          cc-pVDZ                  6       14   3s2p1d
 H                          cc-pVDZ                  3        5   2s1p



 Forming initial guess at       8.4s


 Loading old vectors from job with title :

H2O


 Starting SCF solution at       8.4s



 ----------------------------------------------
         Quadratically convergent ROHF

 Convergence threshold     :          1.000E-04
 Maximum no. of iterations :           30
 Final Fock-matrix accuracy:          1.000E-07
 ----------------------------------------------


 #quartets = 3.081D+03 #integrals = 2.131D+04 #direct =  0.0% #cached =100.0%


 Integral file          = ./H2O.aoints.0
 Record size in doubles =  65536        No. of integs per rec  =  43688
 Max. records in memory =      4        Max. records in file   = 232333
 No. of bits per label  =      8        No. of bits per value  =     64



       Final RHF  results 
       ------------------ 

         Total SCF energy =    -75.822098597373
      One-electron energy =   -118.493652255777
      Two-electron energy =     35.759357799212
 Nuclear repulsion energy =      6.912195859193

        Time for solution =      0.0s


             Final eigenvalues
             -----------------

              1      
    1  -20.6035
    2   -1.2925
    3   -0.6549
    4   -0.5285
    5   -0.4537
    6   -0.1087
    7   -0.0260
    8   -0.0120
    9    0.4654
   10    0.6255
   11    1.0731
   12    1.2030
   13    1.4402
   14    1.4675
   15    1.5406

                       ROHF Final Molecular Orbital Analysis
                       -------------------------------------

 Vector    2  Occ=2.000000D+00  E=-1.292541D+00
              MO Center= -2.8D-01, -1.3D-01, -2.0D-11, r^2= 4.2D-01
   Bfn.  Coefficient  Atom+Function         Bfn.  Coefficient  Atom+Function  
  ----- ------------  ---------------      ----- ------------  ---------------
     3      0.560817  1 O  s                  2      0.478238  1 O  s          
     4     -0.178012  1 O  px         

 Vector    3  Occ=2.000000D+00  E=-6.549265D-01
              MO Center= -7.1D-02, -1.5D-01,  2.1D-11, r^2= 5.9D-01
   Bfn.  Coefficient  Atom+Function         Bfn.  Coefficient  Atom+Function  
  ----- ------------  ---------------      ----- ------------  ---------------
     6      0.644098  1 O  pz                 9      0.493186  1 O  pz         

 Vector    4  Occ=2.000000D+00  E=-5.285029D-01
              MO Center=  3.5D-01, -2.9D-01,  6.7D-14, r^2= 5.7D-01
   Bfn.  Coefficient  Atom+Function         Bfn.  Coefficient  Atom+Function  
  ----- ------------  ---------------      ----- ------------  ---------------
     4      0.487916  1 O  px                20      0.437322  3 H  s          
     7      0.246981  1 O  px         

 Vector    5  Occ=2.000000D+00  E=-4.537336D-01
              MO Center= -6.7D-02,  6.7D-01,  4.0D-13, r^2= 1.4D+00
   Bfn.  Coefficient  Atom+Function         Bfn.  Coefficient  Atom+Function  
  ----- ------------  ---------------      ----- ------------  ---------------
     5      0.434067  1 O  py                15      0.358159  2 H  s          
    16      0.308903  2 H  s                  8      0.305052  1 O  py         

 Vector    6  Occ=0.000000D+00  E=-1.087268D-01
              MO Center= -7.8D-02,  8.7D-01, -2.1D-14, r^2= 1.5D+00
   Bfn.  Coefficient  Atom+Function         Bfn.  Coefficient  Atom+Function  
  ----- ------------  ---------------      ----- ------------  ---------------
     5      0.551018  1 O  py                15     -0.518526  2 H  s          
    16     -0.364302  2 H  s                  8      0.269810  1 O  py         

 Vector    7  Occ=0.000000D+00  E=-2.600710D-02
              MO Center=  5.2D-01, -3.6D-01, -1.1D-12, r^2= 6.1D-01
   Bfn.  Coefficient  Atom+Function         Bfn.  Coefficient  Atom+Function  
  ----- ------------  ---------------      ----- ------------  ---------------
     4      0.801207  1 O  px                20     -0.799903  3 H  s          
     2      0.322179  1 O  s                  5     -0.243798  1 O  py         
     3      0.215267  1 O  s                 21     -0.188284  3 H  s          

 Vector    8  Occ=0.000000D+00  E=-1.197695D-02
              MO Center= -2.6D-02, -1.7D-01,  2.7D-11, r^2= 1.1D+00
   Bfn.  Coefficient  Atom+Function         Bfn.  Coefficient  Atom+Function  
  ----- ------------  ---------------      ----- ------------  ---------------
     9     -0.973344  1 O  pz                 6      0.952249  1 O  pz         

 Vector    9  Occ=0.000000D+00  E= 4.653553D-01
              MO Center=  1.1D+00, -6.4D-01, -7.0D-12, r^2= 2.6D+00
   Bfn.  Coefficient  Atom+Function         Bfn.  Coefficient  Atom+Function  
  ----- ------------  ---------------      ----- ------------  ---------------
    21      1.711110  3 H  s                  3     -0.817947  1 O  s          
    20     -0.631726  3 H  s                  7     -0.432492  1 O  px         
    22     -0.195458  3 H  px                 4      0.176597  1 O  px         

 Vector   10  Occ=0.000000D+00  E= 6.255049D-01
              MO Center= -1.1D-01,  1.9D+00,  1.6D-12, r^2= 2.1D+00
   Bfn.  Coefficient  Atom+Function         Bfn.  Coefficient  Atom+Function  
  ----- ------------  ---------------      ----- ------------  ---------------
    16      1.484149  2 H  s                 15     -1.188305  2 H  s          
    21     -0.355467  3 H  s                  8     -0.327793  1 O  py         
     3     -0.160250  1 O  s          

 Vector   11  Occ=0.000000D+00  E= 1.073099D+00
              MO Center= -3.4D-01,  1.1D-01, -1.7D-12, r^2= 1.4D+00
   Bfn.  Coefficient  Atom+Function         Bfn.  Coefficient  Atom+Function  
  ----- ------------  ---------------      ----- ------------  ---------------
     7      1.435426  1 O  px                20     -1.117298  3 H  s          
     3      0.539502  1 O  s                  4     -0.506627  1 O  px         
     8     -0.289690  1 O  py                17      0.244336  2 H  px         
    22      0.169096  3 H  px                21     -0.167507  3 H  s          
     2      0.154906  1 O  s          

 Vector   12  Occ=0.000000D+00  E= 1.202975D+00
              MO Center= -8.0D-02,  3.9D-01,  2.3D-13, r^2= 1.6D+00
   Bfn.  Coefficient  Atom+Function         Bfn.  Coefficient  Atom+Function  
  ----- ------------  ---------------      ----- ------------  ---------------
     8      0.951490  1 O  py                 5     -0.781218  1 O  py         
    18     -0.341454  2 H  py                15     -0.323936  2 H  s          
    20      0.172708  3 H  s          

 Vector   13  Occ=0.000000D+00  E= 1.440225D+00
              MO Center=  3.4D-01,  9.9D-02, -6.1D-12, r^2= 1.8D+00
   Bfn.  Coefficient  Atom+Function         Bfn.  Coefficient  Atom+Function  
  ----- ------------  ---------------      ----- ------------  ---------------
     3      1.072113  1 O  s                  2     -0.714300  1 O  s          
    23     -0.623422  3 H  py                18     -0.534811  2 H  py         
    21     -0.446664  3 H  s                  7      0.366277  1 O  px         
     8     -0.357120  1 O  py                 1     -0.303311  1 O  s          
    20     -0.303770  3 H  s                  5      0.261865  1 O  py         

 Vector   14  Occ=0.000000D+00  E= 1.467516D+00
              MO Center=  1.9D-01,  8.7D-01,  1.5D-12, r^2= 1.7D+00
   Bfn.  Coefficient  Atom+Function         Bfn.  Coefficient  Atom+Function  
  ----- ------------  ---------------      ----- ------------  ---------------
    19      0.777637  2 H  pz                24     -0.616759  3 H  pz         
     9      0.238588  1 O  pz         

 Vector   15  Occ=0.000000D+00  E= 1.540631D+00
              MO Center= -9.6D-02,  1.1D+00, -4.2D-13, r^2= 1.5D+00
   Bfn.  Coefficient  Atom+Function         Bfn.  Coefficient  Atom+Function  
  ----- ------------  ---------------      ----- ------------  ---------------
    17      0.877777  2 H  px                 3      0.457606  1 O  s          
     2     -0.442094  1 O  s                  7     -0.378129  1 O  px         
    23      0.314714  3 H  py                20      0.194538  3 H  s          
     4      0.191403  1 O  px                 1     -0.178021  1 O  s          
    21     -0.173947  3 H  s          


 center of mass
 --------------
 x =  -0.07599894 y =  -0.12163595 z =   0.00000000

 moments of inertia (a.u.)
 ------------------
          11.715540851130           1.396730858111           0.000000000000
           1.396730858111           2.833002082974           0.000000000000
           0.000000000000           0.000000000000          14.548542934104

  Mulliken analysis of the total density
  --------------------------------------

    Atom       Charge   Shell Charges
 -----------   ------   -------------------------------------------------------
    1 O    8     8.27   2.00  0.88  0.96  2.63  1.79  0.01
    2 H    1     0.90   0.47  0.42  0.00
    3 H    1     0.83   0.69  0.06  0.07

       Multipole analysis of the density wrt the origin
       ------------------------------------------------

     L   x y z        total         open         nuclear
     -   - - -        -----         ----         -------
     0   0 0 0     -0.000000      0.000000     10.000000

     1   1 0 0      0.600517      0.000000     -0.000000
     1   0 1 0      0.174371      0.000000      0.000000
     1   0 0 1     -0.000000      0.000000      0.000000

     2   2 0 0     -4.398163      0.000000      2.679864
     2   1 1 0     -0.712069      0.000000     -1.595779
     2   1 0 1      0.000000      0.000000      0.000000
     2   0 2 0     -3.087379      0.000000     11.288646
     2   0 1 1     -0.000000      0.000000      0.000000
     2   0 0 2     -5.740487      0.000000      0.000000


 Parallel integral file used       1 records with       0 large values

                   NWChem Extensible Many-Electron Theory Module
                   ---------------------------------------------

              ======================================================
                   This portion of the program was automatically
                  generated by a Tensor Contraction Engine (TCE).
                  The development of this portion of the program
                 and TCE was supported by US Department of Energy,
                Office of Science, Office of Basic Energy Science.
                      TCE is a product of Battelle and PNNL.
              Please cite: S.Hirata, J.Phys.Chem.A 107, 9887 (2003).
              ======================================================

                                        H2O


            General Information
            -------------------
      Number of processors :     1
         Wavefunction type : Restricted Hartree-Fock
          No. of electrons :    10
           Alpha electrons :     5
            Beta electrons :     5
           No. of orbitals :    48
            Alpha orbitals :    24
             Beta orbitals :    24
        Alpha frozen cores :     0
         Beta frozen cores :     0
     Alpha frozen virtuals :     0
      Beta frozen virtuals :     0
         Spin multiplicity : singlet 
    Number of AO functions :    24
       Number of AO shells :    12
        Use of symmetry is : off
      Symmetry adaption is : off
         Schwarz screening : 0.10D-09

          Correlation Information
          -----------------------
          Calculation type : Coupled-cluster singles & doubles                           
   Perturbative correction : none                                                        
            Max iterations :      300
        Residual threshold : 0.10D-06
     T(0) DIIS level shift : 0.00D+00
     L(0) DIIS level shift : 0.00D+00
     T(1) DIIS level shift : 0.00D+00
     L(1) DIIS level shift : 0.00D+00
     T(R) DIIS level shift : 0.00D+00
     T(I) DIIS level shift : 0.00D+00
   CC-T/L Amplitude update :  5-th order DIIS
                I/O scheme : Global Array Library
        L-threshold :  0.10D-06
        EOM-threshold :  0.10D-06
 no EOMCCSD initial starts read in
 TCE RESTART OPTIONS
 READ_INT:   F
 WRITE_INT:  F
 READ_TA:    F
 WRITE_TA:   F
 READ_XA:    F
 WRITE_XA:   F
 READ_IN3:   F
 WRITE_IN3:  F
 SLICE:      F
 D4D5:       F
 quantumc:   F
 qrotation:  F
 pwtce:      F
 qducc:      T
 nacto:                         0
 nrotv:                         0
 nrot:                          0

            Memory Information
            ------------------
          Available GA space size is    1610612160 doubles
          Available MA space size is    1610610956 doubles

 Maximum block size        32 doubles

 tile_dim =     19

 Block   Spin    Irrep     Size     Offset   Alpha
 -------------------------------------------------
   1    alpha     a      5 doubles       0       1
   2    beta      a      5 doubles       5       1
   3    alpha     a     19 doubles      10       3
   4    beta      a     19 doubles      29       3

 Global array virtual files algorithm will be used

 Parallel file system coherency ......... OK

 #quartets = 3.081D+03 #integrals = 2.131D+04 #direct =  0.0% #cached =100.0%


 Integral file          = ./H2O.aoints.0
 Record size in doubles =  65536        No. of integs per rec  =  43688
 Max. records in memory =      4        Max. records in file   = 232333
 No. of bits per label  =      8        No. of bits per value  =     64


 Fock matrix recomputed
 1-e file size   =              576
 1-e file name   = ./H2O.f1
 Cpu & wall time / sec            0.0            0.0
 4-electron integrals stored in orbital form

 v2    file size   =           185666
 4-index algorithm nr.  13 is used
 imaxsize =       30
 imaxsize ichop =        0
 Cpu & wall time / sec            0.1            0.1
 T1-number-of-tasks                    1

 t1 file size   =               95
 t1 file name   = ./H2O.t1
 t1 file handle =       -998
 T2-number-of-boxes                    2

 t2 file size   =            18050
 t2 file name   = ./H2O.t2
 t2 file handle =       -996
CCSD iterations
 ---------------------------------------------------------
 Iter          Residuum       Correlation     Cpu    Wall 
 ---------------------------------------------------------
NEW TASK SCHEDULING
CCSD_T1_NTS --- OK
CCSD_T2_NTS --- OK
    1   0.8184057731045  -0.4031896776888     0.0     0.0
    2   1.3823548814408  -0.0080438191802     0.0     0.0
    3   2.4244498332658  -0.7047693544980     0.0     0.0
    4   4.3324808641302   0.4716688371173     0.0     0.0
    5   7.4693858109148  -1.6451326225592     0.0     0.0
 MICROCYCLE DIIS UPDATE:                    5                    5
    6   0.0452758215981  -0.2635571125215     0.0     0.0
    7   0.0447861339661  -0.2629772248994     0.0     0.0
    8   0.0843925274579  -0.2687203351554     0.0     0.0
    9   0.1716971474257  -0.2558960241516     0.0     0.0
   10   0.3606539630770  -0.2582655299610     0.0     0.0
 MICROCYCLE DIIS UPDATE:                   10                    5
   11   0.0029829918435  -0.2667160691799     0.0     0.0
   12   0.0032760853782  -0.2672146523934     0.0     0.0
   13   0.0046640200361  -0.2665129075494     0.0     0.0
   14   0.0078198688370  -0.2678553762768     0.0     0.0
   15   0.0139978409119  -0.2655733761809     0.0     0.0
 MICROCYCLE DIIS UPDATE:                   15                    5
   16   0.0004247310370  -0.2670661881112     0.0     0.0
   17   0.0004350390737  -0.2670481134624     0.0     0.0
   18   0.0007024346216  -0.2670993810294     0.0     0.0
   19   0.0014382004204  -0.2670061219773     0.0     0.0
   20   0.0030694284693  -0.2671783112020     0.0     0.0
 MICROCYCLE DIIS UPDATE:                   20                    5
   21   0.0000660388053  -0.2670653494719     0.0     0.0
   22   0.0000689227943  -0.2670795680452     0.0     0.0
   23   0.0001116604422  -0.2670547854953     0.0     0.0
   24   0.0002070556268  -0.2670986483958     0.0     0.0
   25   0.0003995884663  -0.2670223371783     0.0     0.0
 MICROCYCLE DIIS UPDATE:                   25                    5
   26   0.0000112985565  -0.2670712825180     0.0     0.0
   27   0.0000110194972  -0.2670709914793     0.0     0.0
   28   0.0000177115062  -0.2670722227330     0.0     0.0
   29   0.0000364969465  -0.2670701390352     0.0     0.0
   30   0.0000785997266  -0.2670739792129     0.0     0.0
 MICROCYCLE DIIS UPDATE:                   30                    5
   31   0.0000018693380  -0.2670715198554     0.0     0.0
   32   0.0000019302073  -0.2670719199196     0.0     0.0
   33   0.0000031997120  -0.2670711617707     0.0     0.0
   34   0.0000058709770  -0.2670724759958     0.0     0.0
   35   0.0000111691081  -0.2670701649385     0.0     0.0
 MICROCYCLE DIIS UPDATE:                   35                    5
   36   0.0000003126204  -0.2670716400587     0.0     0.0
   37   0.0000003032790  -0.2670716344422     0.0     0.0
   38   0.0000005002495  -0.2670716638795     0.0     0.0
   39   0.0000010397799  -0.2670716159883     0.0     0.0
   40   0.0000022499155  -0.2670717041502     0.0     0.0
 MICROCYCLE DIIS UPDATE:                   40                    5
   41   0.0000000496695  -0.2670716477943     0.0     0.0
 -----------------------------------------------------------------
 Iterations converged
 CCSD correlation energy / hartree =        -0.267071647794313
 CCSD total energy / hartree       =       -76.089170245166983

 Singles contributions
     6a   (alpha) ---     5a   (alpha)        0.0248869581

 Doubles contributions
     7a   (alpha)     8a   (alpha) ---     3a   (alpha)     4a   (alpha)        0.0255570838
     7a   (alpha)     8a   (alpha) ---     4a   (alpha)     3a   (alpha)       -0.0255570838
     8a   (alpha)     7a   (alpha) ---     3a   (alpha)     4a   (alpha)       -0.0255570838
     8a   (alpha)     7a   (alpha) ---     4a   (alpha)     3a   (alpha)        0.0255570838
     6a   (alpha)     6a   (beta ) ---     3a   (alpha)     3a   (beta )       -0.0218322082
     6a   (alpha)     6a   (beta ) ---     5a   (alpha)     5a   (beta )       -0.3507934447
     6a   (alpha)     7a   (beta ) ---     5a   (alpha)     4a   (beta )       -0.0299653977
     6a   (alpha)     8a   (beta ) ---     5a   (alpha)     3a   (beta )       -0.0280433283
     7a   (alpha)     6a   (beta ) ---     4a   (alpha)     5a   (beta )       -0.0299653977
     7a   (alpha)     7a   (beta ) ---     4a   (alpha)     4a   (beta )       -0.0868472238
     7a   (alpha)     8a   (beta ) ---     4a   (alpha)     3a   (beta )       -0.0347676798
     8a   (alpha)     6a   (beta ) ---     3a   (alpha)     5a   (beta )       -0.0280433283
     8a   (alpha)     7a   (beta ) ---     3a   (alpha)     4a   (beta )       -0.0347676798
     8a   (alpha)     8a   (beta ) ---     3a   (alpha)     3a   (beta )       -0.0507525205
 Ground state specification:
 exp(T)|Ref>~(1+T)|Ref>
 ------- a(p)+/a(q) strings ----------

 singles norm

 doubles norm

 Reference string
  0.94362466865942585      :(1a)+ (2a)+ (3a)+ (4a)+ (5a)+ (1b)+ (2b)+ (3b)+ (4b)+ (5b)+ |0>

 Singles strings

 Doubles strings
 -0.33101734803086774      :(6a)+ (6b)+ (5b)  (5a)  (1a)+ (2a)+ (3a)+ (4a)+ (5a)+ (1b)+ (2b)+ (3b)+ (4b)+ (5b)+ |0>
 -------------------------------------
 enrep_tce =    6.9121958591931785     
  EHF(total)         =       -75.82209860
  Shift (HFtot-HFA)  =         0.00000000
 ALL OCCUPIED ORBITALS ARE ACTIVE IN DUCC --> NO SHIFT
 Number of active orbitals                    8
 Number of active alpha electrons                    5
 Number of active beta electrons                    5
  nos                    10
  nvs                    38
 noas                     5
 nobs                     5
 nvas                    19
 nvbs                    19
 nactv                     3
 DUCC MODEL =                     6
 NONHF =  T
 F-T1 correlation    =   -8.2379776489055457E-004
 V-T1-T1 correlation =    9.9667086650761673E-005
 V-T2 correlation    =  -0.26634751711610766     
 Total correlation   =  -0.26707164779434744     
 F-T1(Ext) correlation         =    7.0361073226143457E-006
 V-T1(Ext)-T1(Ext) correlation =    3.4496237376486392E-006
 V-T2(Ext) correlation         =  -0.12649132021645187     
 Total Ext correlation         =  -0.12648083448539160     
1-BODY TIME =    1.300 SECONDS.
  HHHH TIME =    1.560 SECONDS.
  PPPP TIME =    0.026 SECONDS.
  HHHP TIME =    0.525 SECONDS.
  PPPH TIME =    0.077 SECONDS.
  HPHP TIME =    0.287 SECONDS.
  HHPP TIME =    0.266 SECONDS.
 ONE-BODY UNITARY CHECK
 TWO-BODY UNITARY CHECK
                    1                    1                    1                    4   1.9113000356326214E-012
                    1                    1                    1                    5  -1.1282718910601655E-011
                    1                    1                    2                    4  -2.0669812752998677E-011
                    1                    1                    2                    5   6.6888692447461823E-011
                    1                    1                    4                    1  -1.9112995729611172E-012
                    1                    1                    4                    2   2.0669812749797488E-011
                    1                    1                    4                    5  -2.1098469092805989E-011
                    1                    1                    5                    1   1.1282718954472588E-011
                    1                    1                    5                    2  -6.6888692448180384E-011
                    1                    1                    5                    4   2.1098469092964756E-011
                    1                    2                    1                    4  -3.9729488796047541E-011
                    1                    2                    1                    5   6.2756883023595833E-011
                    1                    2                    2                    1  -4.8892001558442644E-012
                    1                    2                    2                    2   1.5392309492696024E-011
                    1                    2                    2                    4   4.5797498259003699E-010
                    1                    2                    2                    5  -1.1175754261217260E-009
                    1                    2                    3                    3  -4.9390570863024607E-011
                    1                    2                    4                    1   4.7831773264395139E-012
                    1                    2                    4                    2  -1.7811659612509967E-010
                    1                    2                    4                    4  -7.6736981578408338E-011
                    1                    2                    4                    5   3.7452942038950637E-010
                    1                    2                    5                    1  -5.6425079886235352E-011
                    1                    2                    5                    2   1.1068598244140732E-009
                    1                    2                    5                    4  -4.2220463811280112E-010
                    1                    2                    5                    5  -2.1898208760154396E-011
                    1                    3                    2                    3  -1.1844367986402204E-009
                    1                    3                    3                    1   2.0800716704627575E-010
                    1                    3                    3                    2  -1.2428264008212953E-009
                    1                    3                    3                    4   5.3673770983309055E-010
                    1                    3                    3                    5  -1.1030110607431615E-009
                    1                    3                    4                    3   8.6324201259424527E-011
                    1                    3                    5                    3   1.5618929485265026E-009
                    1                    4                    1                    1  -1.9113000356326214E-012
                    1                    4                    1                    2   3.9729488796047541E-011
                    1                    4                    1                    5  -1.6966445609556402E-011
                    1                    4                    2                    1   1.2796265783099336E-011
                    1                    4                    2                    2  -2.0134387141662646E-010
                    1                    4                    2                    4  -4.8555572756958654E-010
                    1                    4                    2                    5   2.2899580636673994E-010
                    1                    4                    3                    3   4.7977301587525352E-011
                    1                    4                    4                    1   1.5776824291435787E-010
                    1                    4                    4                    2  -9.5612376696529999E-010
                    1                    4                    4                    4  -2.4983757425403419E-011
                    1                    4                    4                    5  -1.2911352050438279E-009
                    1                    4                    5                    1  -3.6533380487480116E-012
                    1                    4                    5                    2  -1.1092779158335814E-010
                    1                    4                    5                    4   1.6428024218750892E-009
                    1                    4                    5                    5   2.2768382421106127E-011
                    1                    5                    1                    1   1.1282718910601655E-011
                    1                    5                    1                    2  -6.2756883023595833E-011
                    1                    5                    1                    4   1.6966445609556402E-011
                    1                    5                    2                    1  -4.6311052215308735E-011
                    1                    5                    2                    2   2.9306906004580420E-010
                    1                    5                    2                    4  -2.1508472260178824E-010
                    1                    5                    2                    5  -7.7847835816546862E-011
                    1                    5                    3                    3   1.8260404017793573E-010
                    1                    5                    4                    1  -5.0943017165794302E-011
                    1                    5                    4                    2   2.4232099681865960E-010
                    1                    5                    4                    4   9.6215622304749711E-011
                    1                    5                    4                    5   6.6756307079418598E-011
                    1                    5                    5                    1  -2.6935453867338310E-011
                    1                    5                    5                    2   2.7606266057855766E-010
                    1                    5                    5                    4   9.0868273842914515E-011
                    1                    5                    5                    5  -2.1116621489961202E-011
                    1                    6                    1                    7  -3.7157277255062127E-011
                    1                    6                    1                    9  -1.4259163294561006E-011
                    1                    6                    1                   10  -1.1236801419900466E-011
                    1                    6                    2                    6  -3.4121760972283255E-011
                    1                    6                    2                    7   3.7884991671566226E-010
                    1                    6                    2                    9  -3.0045839947978603E-011
                    1                    6                    3                    8  -1.0516310391950334E-010
                    1                    6                    4                    6   7.3250711052352813E-012
                    1                    6                    4                    7  -7.4425946308687152E-011
                    1                    6                    4                    9  -3.3942176846935013E-010
                    1                    6                    4                   10   5.4511659238181548E-011
                    1                    6                    5                    6   1.7585119124752246E-011
                    1                    6                    5                    7  -5.9838911169868281E-011
                    1                    6                    5                    9   1.7750548703425115E-010
                    1                    6                    5                   10   1.1148032150187781E-011
                    1                    6                    6                    2   3.7419900511537207E-011
                    1                    6                    6                    4   1.6170398353665405E-011
                    1                    6                    7                    1   3.3859137715808174E-011
                    1                    6                    7                    2  -3.7884991671566226E-010
                    1                    6                    7                    4   9.3760320687974463E-012
                    1                    6                    7                    5   6.5973056011248143E-011
                    1                    6                    8                    3   1.0516310391950334E-010
                    1                    6                    9                    1  -9.2363061643396804E-012
                    1                    6                    9                    2   9.5095754187868309E-011
                    1                    6                    9                    4   3.3942176846935013E-010
                    1                    6                    9                    5  -7.5610128509769059E-011
                    1                    6                   10                    1  -6.3024030438896261E-012
                    1                    6                   10                    2  -7.0497852347473078E-012
                    1                    6                   10                    4  -1.5640701776266364E-010
                    1                    6                   10                    5  -1.1148032150187781E-011
                    1                    7                    1                    6   3.7157277255062127E-011
                    1                    7                    1                    9   1.3943048104980704E-012
                    1                    7                    1                   10   4.8055032175753354E-012
                    1                    7                    2                    6   1.4930917613398265E-011
                    1                    7                    2                    7  -1.6033998347791956E-011
                    1                    7                    2                    9  -1.5792499426237061E-010
                    1                    7                    2                   10   2.8164950338334729E-009
                    1                    7                    3                    8   3.5926984998102540E-010
                    1                    7                    4                    6  -1.0469229649867628E-012
                    1                    7                    4                    7  -3.7020730231374088E-010
                    1                    7                    4                    9   2.3593249229292290E-010
                    1                    7                    4                   10  -1.9517943056039655E-010
                    1                    7                    5                    6  -9.9203713820050776E-011
                    1                    7                    5                    7   4.1633643668020914E-009
                    1                    7                    5                    9  -2.8409046187553855E-010
                    1                    7                    5                   10  -2.0408663821414041E-010
                    1                    7                    6                    1  -3.7419900511537207E-011
                    1                    7                    6                    4  -4.1123840010398593E-011
                    1                    7                    6                    5   5.7951551977325488E-011
                    1                    7                    7                    1  -1.9821477792447695E-011
                    1                    7                    7                    2   3.1426309905074890E-011
                    1                    7                    7                    4   6.1590000460798322E-010
                    1                    7                    7                    5  -3.9340704578554042E-009
                    1                    7                    8                    3  -4.0866041106646378E-010
                    1                    7                    9                    1   5.8301349858957963E-012
                    1                    7                    9                    2   1.9209066282055431E-010
                    1                    7                    9                    4  -3.1266948058439326E-010
                    1                    7                    9                    5   5.6970885485303074E-010
                    1                    7                   10                    1   4.2778489084405180E-011
                    1                    7                   10                    2  -3.0565045445801395E-009
                    1                    7                   10                    4  -1.3811417981512975E-010
                    1                    7                   10                    5   1.8218843621242709E-010
                    1                    8                    2                    8   9.9782682116966726E-010
                    1                    8                    3                    6   4.3639623165114827E-011
                    1                    8                    3                    7   1.5327323299452189E-009
                    1                    8                    3                    9   5.7521483236289139E-011
                    1                    8                    3                   10   8.8429458709998049E-010
                    1                    8                    4                    8  -2.3832867493758791E-010
                    1                    8                    5                    8   2.4254304625912632E-009
                    1                    8                    7                    3  -2.1822635573598426E-009
                    1                    8                    8                    1   1.6436563221589040E-010
                    1                    8                    8                    2  -2.7755587884460697E-009
                    1                    8                    8                    4   4.7921622399471620E-010
                    1                    8                    8                    5  -1.9873056433979130E-009
                    1                    8                    9                    3   3.2465288270222548E-010
                    1                    8                   10                    3  -8.6353751731736705E-010
                    1                    9                    1                    6   1.4259163294561006E-011
                    1                    9                    1                    7  -1.3943048104980704E-012
                    1                    9                    1                   10   7.8743574161155294E-012
[...]
    7    7    4    1        0.0092055571
    7    7    4    2        0.0703334645
    7    7    4    4        0.7504415177
    7    7    4    5        0.0050090706
    7    7    4    6       -0.0063597552
    7    7    4    7        0.0869428534
    7    8    4    3        0.0278874021
    7    8    4    8        0.0023940327
    7    1    5    1       -0.0002429494
    7    1    5    2        0.0007920811
    7    1    5    4       -0.0006173297
    7    1    5    5       -0.0026038778
    7    1    5    6       -0.0013538518
    7    1    5    7       -0.0002519230
    7    2    5    1       -0.0001412635
    7    2    5    2       -0.0026274215
    7    2    5    4       -0.0015538067
    7    2    5    5        0.0080893326
    7    2    5    6        0.0125354828
    7    2    5    7       -0.0019552019
    7    3    5    3       -0.0007803129
    7    3    5    8       -0.0001061214
    7    4    5    1        0.0014082994
    7    4    5    2       -0.0065483612
    7    4    5    4        0.0054729572
    7    4    5    5        0.1067540722
    7    4    5    6        0.0856967958
    7    4    5    7       -0.0003923725
    7    5    5    1        0.0041582293
    7    5    5    2        0.0121503075
    7    5    5    4        0.0107816887
    7    5    5    5        0.0014493355
    7    5    5    6       -0.0023517473
    7    5    5    7        0.0144693039
    7    6    5    1        0.0047989298
    7    6    5    2        0.0152573552
    7    6    5    4        0.0131111782
    7    6    5    5       -0.0033962102
    7    6    5    6        0.0016542168
    7    6    5    7        0.0147545403
    7    7    5    1        0.0017893697
    7    7    5    2       -0.0192333597
    7    7    5    4        0.0050090706
    7    7    5    5        0.4580714505
    7    7    5    6        0.2012128177
    7    7    5    7        0.0009790426
    7    8    5    3        0.0002012131
    7    8    5    8       -0.0007272642
    7    1    6    1        0.0013800713
    7    1    6    2       -0.0030821752
    7    1    6    4        0.0019988498
    7    1    6    5       -0.0012329182
    7    1    6    6       -0.0033724799
    7    1    6    7        0.0032228997
    7    2    6    1       -0.0020351425
    7    2    6    2       -0.0092161469
    7    2    6    4        0.0046813824
    7    2    6    5        0.0134356041
    7    2    6    6        0.0103679166
    7    2    6    7        0.0058157513
    7    3    6    3        0.0021519907
    7    3    6    8        0.0011706758
    7    4    6    1       -0.0016569129
    7    4    6    2        0.0157156740
    7    4    6    4        0.0052761151
    7    4    6    5        0.0842294126
    7    4    6    6        0.1209040211
    7    4    6    7       -0.0067855233
    7    5    6    1        0.0049283844
    7    5    6    2        0.0126425729
    7    5    6    4        0.0125439498
    7    5    6    5       -0.0019035676
    7    5    6    6        0.0037597463
    7    5    6    7        0.0147545403
    7    6    6    1        0.0057385759
    7    6    6    2        0.0136850231
    7    6    6    4        0.0152003646
    7    6    6    5        0.0015862122
    7    6    6    6       -0.0030140196
    7    6    6    7        0.0185286767
    7    7    6    1       -0.0039330296
    7    7    6    2        0.0190367451
    7    7    6    4       -0.0063597552
    7    7    6    5        0.2012128177
    7    7    6    6        0.4591425371
    7    7    6    7        0.0087316106
    7    8    6    3        0.0012520000
    7    8    6    8        0.0026330997
    7    1    7    1        0.0469257575
    7    1    7    2        0.0226835126
    7    1    7    4        0.0038210156
    7    1    7    5       -0.0003511566
    7    1    7    6        0.0032232284
    7    1    7    7        0.0134033317
    7    2    7    1        0.0226835126
    7    2    7    2        0.0563222962
    7    2    7    4        0.0146633681
    7    2    7    5       -0.0025193627
    7    2    7    6        0.0056084984
    7    2    7    7        0.0337845267
    7    3    7    3        0.0282983113
    7    3    7    8        0.0170741866
    7    4    7    1        0.0038210156
    7    4    7    2        0.0146633681
    7    4    7    4        0.1989894431
    7    4    7    5       -0.0005198307
    7    4    7    6       -0.0068777809
    7    4    7    7        0.0869428534
    7    5    7    1       -0.0003511566
    7    5    7    2       -0.0025193627
    7    5    7    4       -0.0005198307
    7    5    7    5        0.0167605897
    7    5    7    6        0.0158950263
    7    5    7    7        0.0009790426
    7    6    7    1        0.0032232284
    7    6    7    2        0.0056084984
    7    6    7    4       -0.0068777809
    7    6    7    5        0.0158950263
    7    6    7    6        0.0185479685
    7    6    7    7        0.0087316106
    7    7    7    1        0.0134033317
    7    7    7    2        0.0337845267
    7    7    7    4        0.0869428534
    7    7    7    5        0.0009790426
    7    7    7    6        0.0087316106
    7    7    7    7        0.7857936999
    7    8    7    3        0.0170741866
    7    8    7    8        0.0284122560
    7    1    8    3       -0.0049741971
    7    1    8    8       -0.0064667125
    7    2    8    3        0.0105697464
    7    2    8    8        0.0108032378
    7    3    8    1        0.0090735701
    7    3    8    2        0.0120736592
    7    3    8    4        0.0157896689
    7    3    8    5       -0.0001095033
    7    3    8    6        0.0012734431
    7    3    8    7        0.0176848691
    7    4    8    3        0.1067501054
    7    4    8    8        0.1350233722
    7    5    8    3       -0.0001464341
    7    5    8    8       -0.0007643725
    7    6    8    3       -0.0026062750
    7    6    8    8       -0.0015327630
    7    7    8    3        0.1515582725
    7    7    8    8        0.5710940480
    7    8    8    1        0.0090071468
    7    8    8    2        0.0060631219
    7    8    8    4        0.0027783997
    7    8    8    5       -0.0006465117
    7    8    8    6        0.0026491038
    7    8    8    7        0.0284234879
    8    1    1    3        0.0362262574
    8    1    1    8        0.0449237606
    8    2    1    3        0.0186287202
    8    2    1    8        0.0234594424
    8    3    1    1        0.4773903696
    8    3    1    2       -0.0008007543
    8    3    1    4       -0.0030722843
    8    3    1    5        0.0013123623
    8    3    1    6       -0.0018714408
    8    3    1    7       -0.0055605578
    8    4    1    3        0.0025055779
    8    4    1    8        0.0026387339
    8    5    1    3       -0.0003908587
    8    5    1    8       -0.0006849795
    8    6    1    3        0.0029728374
    8    6    1    8        0.0039081338
    8    7    1    3        0.0071921498
    8    7    1    8        0.0090071468
    8    8    1    1        0.9818513701
    8    8    1    2       -0.0021162223
    8    8    1    4       -0.0040973680
    8    8    1    5        0.0015592987
    8    8    1    6       -0.0027361881
    8    8    1    7       -0.0064667125
    8    1    2    3        0.0353504995
    8    1    2    8        0.0234594424
    8    2    2    3        0.0500256840
    8    2    2    8        0.0455404881
    8    3    2    1       -0.0006464580
    8    3    2    2        0.2013224035
    8    3    2    4       -0.0054474353
    8    3    2    5       -0.0089130513
    8    3    2    6        0.0162672956
    8    3    2    7        0.0084750708
    8    4    2    3       -0.0020557266
    8    4    2    8        0.0031651261
    8    5    2    3       -0.0043611357
    8    5    2    8       -0.0006089126
    8    6    2    3        0.0130722788
    8    6    2    8        0.0046776969
    8    7    2    3        0.0250916799
    8    7    2    8        0.0060631219
    8    8    2    1       -0.0021162223
    8    8    2    2        0.6375717611
    8    8    2    4        0.0058582756
    8    8    2    5       -0.0150987039
    8    8    2    6        0.0222686910
    8    8    2    7        0.0108032378
    8    1    3    1        0.0354446433
    8    1    3    2        0.0358015398
    8    1    3    4        0.0068783646
    8    1    3    5       -0.0005714343
    8    1    3    6        0.0036692906
    8    1    3    7        0.0091013676
    8    2    3    1        0.0201033004
    8    2    3    2        0.0507442770
    8    2    3    4        0.0041994569
    8    2    3    5       -0.0018906755
    8    2    3    6        0.0069925215
    8    2    3    7        0.0116061821
    8    3    3    3        0.1970970468
    8    3    3    8        0.1491851936
    8    4    3    1        0.0025507117
    8    4    3    2       -0.0019723682
    8    4    3    4        0.0033393603
    8    4    3    5        0.0003125609
    8    4    3    6        0.0006846970
    8    4    3    7        0.0159133713
    8    5    3    1       -0.0005051371
    8    5    3    2       -0.0044445449
    8    5    3    4       -0.0000960351
    8    5    3    5        0.0050608356
    8    5    3    6        0.0076409279
    8    5    3    7       -0.0001061214
    8    6    3    1        0.0029543892
    8    6    3    2        0.0131221890
    8    6    3    4        0.0023518844
    8    6    3    5        0.0101167164
    8    6    3    6        0.0127337455
    8    6    3    7        0.0011706758
    8    7    3    1        0.0071911650
    8    7    3    2        0.0252492358
    8    7    3    4        0.0278874021
    8    7    3    5        0.0002012131
    8    7    3    6        0.0012520000
    8    7    3    7        0.0170741866
    8    8    3    3        0.6565310997
    8    8    3    8        0.1557709250
    8    1    4    3        0.0068704145
    8    1    4    8        0.0026387339
    8    2    4    3        0.0037666339
    8    2    4    8        0.0031651261
    8    3    4    1       -0.0029553849
    8    3    4    2       -0.0053191046
    8    3    4    4        0.1305284624
    8    3    4    5        0.0042369592
    8    3    4    6        0.0005265691
    8    3    4    7        0.1113266811
    8    4    4    3        0.0031307246
    8    4    4    8        0.0179803393
    8    5    4    3       -0.0000338572
    8    5    4    8        0.0006799384
    8    6    4    3        0.0024348741
    8    6    4    8       -0.0004156036
    8    7    4    3        0.0274185240
    8    7    4    8        0.0027783997
    8    8    4    1       -0.0040973680
    8    8    4    2        0.0058582756
    8    8    4    4        0.5631124601
    8    8    4    5        0.0068429462
    8    8    4    6       -0.0023185383
    8    8    4    7        0.1350233722
    8    1    5    3       -0.0005297917
    8    1    5    8       -0.0006849795
    8    2    5    3       -0.0023510651
    8    2    5    8       -0.0006089126
    8    3    5    1        0.0013100410
    8    3    5    2       -0.0095908749
    8    3    5    4        0.0043581792
    8    3    5    5        0.0970018645
    8    3    5    6        0.0908840555
    8    3    5    7        0.0003060896
    8    4    5    3        0.0003523835
    8    4    5    8        0.0006799384
    8    5    5    3        0.0045077561
    8    5    5    8        0.0115099353
    8    6    5    3        0.0093784022
    8    6    5    8        0.0081348161
    8    7    5    3        0.0003287902
    8    7    5    8       -0.0006465117
    8    8    5    1        0.0015592987
    8    8    5    2       -0.0150987039
    8    8    5    4        0.0068429462
    8    8    5    5        0.4518752953
    8    8    5    6        0.1768518321
    8    8    5    7       -0.0007643725
    8    1    6    3        0.0037080376
    8    1    6    8        0.0039081338
    8    2    6    3        0.0072458238
    8    2    6    8        0.0046776969
    8    3    6    1       -0.0016308061
    8    3    6    2        0.0167878073
    8    3    6    4        0.0003146559
    8    3    6    5        0.0885347152
    8    3    6    6        0.1139359545
    8    3    6    7       -0.0024797037
    8    4    6    3        0.0006610799
    8    4    6    8       -0.0004156036
    8    5    6    3        0.0069439860
    8    5    6    8        0.0081348161
    8    6    6    3        0.0122497244
    8    6    6    8        0.0112601366
    8    7    6    3        0.0013988125
    8    7    6    8        0.0026491038
    8    8    6    1       -0.0027361881
    8    8    6    2        0.0222686910
    8    8    6    4       -0.0023185383
    8    8    6    5        0.1768518321
    8    8    6    6        0.4505046051
    8    8    6    7       -0.0015327630
    8    1    7    3        0.0090735701
    8    1    7    8        0.0090071468
    8    2    7    3        0.0120736592
    8    2    7    8        0.0060631219
    8    3    7    1       -0.0049741971
    8    3    7    2        0.0105697464
    8    3    7    4        0.1067501054
    8    3    7    5       -0.0001464341
    8    3    7    6       -0.0026062750
    8    3    7    7        0.1515582725
    8    4    7    3        0.0157896689
    8    4    7    8        0.0027783997
    8    5    7    3       -0.0001095033
    8    5    7    8       -0.0006465117
    8    6    7    3        0.0012734431
    8    6    7    8        0.0026491038
    8    7    7    3        0.0176848691
    8    7    7    8        0.0284234879
    8    8    7    1       -0.0064667125
    8    8    7    2        0.0108032378
    8    8    7    4        0.1350233722
    8    8    7    5       -0.0007643725
    8    8    7    6       -0.0015327630
    8    8    7    7        0.5710940480
    8    1    8    1        0.0445373932
    8    1    8    2        0.0242839621
    8    1    8    4        0.0025707248
    8    1    8    5       -0.0007837055
    8    1    8    6        0.0038955439
    8    1    8    7        0.0089852569
    8    2    8    1        0.0242839621
    8    2    8    2        0.0496936573
    8    2    8    4        0.0038325085
    8    2    8    5       -0.0009190500
    8    2    8    6        0.0047569243
    8    2    8    7        0.0065849465
    8    3    8    3        0.1482813387
    8    3    8    8        0.1557709250
    8    4    8    1        0.0025707248
    8    4    8    2        0.0038325085
    8    4    8    4        0.0172750342
    8    4    8    5        0.0005544497
    8    4    8    6       -0.0004658231
    8    4    8    7        0.0023940327
    8    5    8    1       -0.0007837055
    8    5    8    2       -0.0009190500
    8    5    8    4        0.0005544497
    8    5    8    5        0.0120240152
    8    5    8    6        0.0082852730
    8    5    8    7       -0.0007272642
    8    6    8    1        0.0038955439
    8    6    8    2        0.0047569243
    8    6    8    4       -0.0004658231
    8    6    8    5        0.0082852730
    8    6    8    6        0.0112641123
    8    6    8    7        0.0026330997
    8    7    8    1        0.0089852569
    8    7    8    2        0.0065849465
    8    7    8    4        0.0023940327
    8    7    8    5       -0.0007272642
    8    7    8    6        0.0026330997
    8    7    8    7        0.0284122560
    8    8    8    3        0.1557709250
    8    8    8    8        0.5961945796
 end_two_electron_integrals

 Parallel integral file used       1 records with       0 large values


 Task  times  cpu:        4.7s     wall:        4.9s


                                NWChem Input Module
                                -------------------


 Summary of allocated global arrays
-----------------------------------
  No active global arrays


MA_summarize_allocated_blocks: starting scan ...
MA_summarize_allocated_blocks: scan completed: 0 heap blocks, 0 stack blocks
MA usage statistics:

	allocation statistics:
					      heap	     stack
					      ----	     -----
	current number of blocks	         0	         0
	maximum number of blocks	        18	        42
	current total bytes		         0	         0
	maximum total bytes		   2175760	 141357496
	maximum total K-bytes		      2176	    141358
	maximum total M-bytes		         3	       142


                                     CITATION
                                     --------
                Please cite the following reference when publishing
                           results obtained with NWChem:

          E. Apra, E. J. Bylaska, W. A. de Jong, N. Govind, K. Kowalski,
       T. P. Straatsma, M. Valiev, H. J. J. van Dam, Y. Alexeev, J. Anchell,
       V. Anisimov, F. W. Aquino, R. Atta-Fynn, J. Autschbach, N. P. Bauman,
     J. C. Becca, D. E. Bernholdt, K. Bhaskaran-Nair, S. Bogatko, P. Borowski,
         J. Boschen, J. Brabec, A. Bruner, E. Cauet, Y. Chen, G. N. Chuev,
      C. J. Cramer, J. Daily, M. J. O. Deegan, T. H. Dunning Jr., M. Dupuis,
   K. G. Dyall, G. I. Fann, S. A. Fischer, A. Fonari, H. Fruchtl, L. Gagliardi,
      J. Garza, N. Gawande, S. Ghosh, K. Glaesemann, A. W. Gotz, J. Hammond,
       V. Helms, E. D. Hermes, K. Hirao, S. Hirata, M. Jacquelin, L. Jensen,
   B. G. Johnson, H. Jonsson, R. A. Kendall, M. Klemm, R. Kobayashi, V. Konkov,
      S. Krishnamoorthy, M. Krishnan, Z. Lin, R. D. Lins, R. J. Littlefield,
      A. J. Logsdail, K. Lopata, W. Ma, A. V. Marenich, J. Martin del Campo,
   D. Mejia-Rodriguez, J. E. Moore, J. M. Mullin, T. Nakajima, D. R. Nascimento,
    J. A. Nichols, P. J. Nichols, J. Nieplocha, A. Otero-de-la-Roza, B. Palmer,
    A. Panyala, T. Pirojsirikul, B. Peng, R. Peverati, J. Pittner, L. Pollack,
   R. M. Richard, P. Sadayappan, G. C. Schatz, W. A. Shelton, D. W. Silverstein,
   D. M. A. Smith, T. A. Soares, D. Song, M. Swart, H. L. Taylor, G. S. Thomas,
            V. Tipparaju, D. G. Truhlar, K. Tsemekhman, T. Van Voorhis,
      A. Vazquez-Mayagoitia, P. Verma, O. Villa, A. Vishnu, K. D. Vogiatzis,
        D. Wang, J. H. Weare, M. J. Williamson, T. L. Windus, K. Wolinski,
        A. T. Wong, Q. Wu, C. Yang, Q. Yu, M. Zacharias, Z. Zhang, Y. Zhao,
                                and R. J. Harrison
                        "NWChem: Past, present, and future
                         J. Chem. Phys. 152, 184102 (2020)
                               doi:10.1063/5.0004997

                                      AUTHORS
                                      -------
  E. Apra, E. J. Bylaska, N. Govind, K. Kowalski, M. Valiev, D. Mejia-Rodriguez,
       A. Kunitsa, N. P. Bauman, A. Panyala, W. A. de Jong, T. P. Straatsma,
        H. J. J. van Dam, D. Wang, T. L. Windus, J. Hammond, J. Autschbach,
    K. Bhaskaran-Nair, J. Brabec, K. Lopata, S. A. Fischer, S. Krishnamoorthy,
     M. Jacquelin, W. Ma, M. Klemm, O. Villa, Y. Chen, V. Anisimov, F. Aquino,
    S. Hirata, M. T. Hackler, Eric Hermes, L. Jensen, J. E. Moore, J. C. Becca,
      V. Konjkov, T. Risthaus, M. Malagoli, A. Marenich, A. Otero-de-la-Roza,
        J. Mullin, P. Nichols, R. Peverati, J. Pittner, Y. Zhao, P.-D. Fan,
        A. Fonari, M. J. Williamson, R. J. Harrison, J. R. Rehr, M. Dupuis,
     D. Silverstein, D. M. A. Smith, J. Nieplocha, V. Tipparaju, M. Krishnan,
     B. E. Van Kuiken, A. Vazquez-Mayagoitia, M. Swart, Q. Wu, T. Van Voorhis,
     A. A. Auer, M. Nooijen, L. D. Crosby, E. Brown, G. Cisneros, G. I. Fann,
   H. Fruchtl, J. Garza, K. Hirao, R. A. Kendall, J. A. Nichols, K. Tsemekhman,
    K. Wolinski, J. Anchell, D. E. Bernholdt, P. Borowski, T. Clark, D. Clerc,
   H. Dachsel, M. J. O. Deegan, K. Dyall, D. Elwood, E. Glendening, M. Gutowski,
   A. C. Hess, J. Jaffe, B. G. Johnson, J. Ju, R. Kobayashi, R. Kutteh, Z. Lin,
   R. Littlefield, X. Long, B. Meng, T. Nakajima, S. Niu, L. Pollack, M. Rosing,
   K. Glaesemann, G. Sandrone, M. Stave, H. Taylor, G. Thomas, J. H. van Lenthe,
                               A. T. Wong, Z. Zhang.

 Total times  cpu:        9.2s     wall:       13.2s
