 argument  1 = input.nw
  NWChem w/ OpenMP: maximum threads =    1



============================== echo of input deck ==============================
 echo
 start Li2
 title "Li2"

 memory total 24 gb

 geometry units bohr
 symmetry c1
        Li  0.00000000  0.00000000  0.00000000
        Li  0.00000000  10.8  0.00000000
 end

 basis
   * library cc-pVTZ
 end

 mcscf
   active  4
   actelec 6
   multiplicity 1
   maxiter 40
   vectors input Li2.mos
   vectors output Li2.mos
 end

 task mcscf

 scf
   vectors input Li2.mos
   vectors output Li2-10.8.mos
   noscf
 end

 tce
   2eorb
   2emet 13
   ccsd
   maxiter 300
   lshift 0.3
 end

# set tce:print_integrals T
# set tce:qorb 10
# set tce:qela 1
# set tce:qelb 1

 set tce:qducc T
 set tce:nactv 1
 set tce:nonhf T
 set tce:ducc_model 6

 set tce:printtol 0.02

 task tce
================================================================================


                                         
                                         


             Northwest Computational Chemistry Package (NWChem) 7.0.1
             --------------------------------------------------------


                    Environmental Molecular Sciences Laboratory
                       Pacific Northwest National Laboratory
                                Richland, WA 99352

                              Copyright (c) 1994-2020
                       Pacific Northwest National Laboratory
                            Battelle Memorial Institute

             NWChem is an open-source computational chemistry package
                        distributed under the terms of the
                      Educational Community License (ECL) 2.0
             A copy of the license is included with this distribution
                              in the LICENSE.TXT file

                                  ACKNOWLEDGMENT
                                  --------------

            This software and its documentation were developed at the
            EMSL at Pacific Northwest National Laboratory, a multiprogram
            national laboratory, operated for the U.S. Department of Energy
            by Battelle under Contract Number DE-AC05-76RL01830. Support
            for this work was provided by the Department of Energy Office
            of Biological and Environmental Research, Office of Basic
            Energy Sciences, and the Office of Advanced Scientific Computing.


           Job information
           ---------------

    hostname        = WE46210
    program         = /home/baum612/code/nwchem/bin/LINUX64/nwchem
    date            = Wed Nov 15 07:42:14 2023

    compiled        = Mon_Nov_06_10:06:57_2023
    source          = /home/baum612/code/nwchem
    nwchem branch   = 7.0.0
    nwchem revision = nwchem_on_git-4191-g39d87d64de
    ga revision     = 5.8.1
    use scalapack   = F
    input           = input.nw
    prefix          = Li2.
    data base       = ./Li2.db
    status          = startup
    nproc           =        1
    time left       =     -1s



           Memory information
           ------------------

    heap     =  805306362 doubles =   6144.0 Mbytes
    stack    =  805306367 doubles =   6144.0 Mbytes
    global   = 1610612736 doubles =  12288.0 Mbytes (distinct from heap & stack)
    total    = 3221225465 doubles =  24576.0 Mbytes
    verify   = yes
    hardfail = no 


           Directory information
           ---------------------

  0 permanent = .
  0 scratch   = .




                                NWChem Input Module
                                -------------------


                                        Li2
                                        ---
 Turning off AUTOSYM since
 SYMMETRY directive was detected!


          ------
          auto-z
          ------
     1 autoz failed with cvr_scaling = 1.2 changing to 1.3
     2 autoz failed with cvr_scaling = 1.3 changing to 1.4
     3 autoz failed with cvr_scaling = 1.4 changing to 1.5
     4 autoz failed with cvr_scaling = 1.5 changing to 1.6
     5 autoz failed with cvr_scaling = 1.6 changing to 1.7

 AUTOZ failed to generate good internal coordinates.
 Cartesian coordinates will be used in optimizations.



                             Geometry "geometry" -> ""
                             -------------------------

 Output coordinates in a.u. (scale by  1.000000000 to convert to a.u.)

  No.       Tag          Charge          X              Y              Z
 ---- ---------------- ---------- -------------- -------------- --------------
    1 Li                   3.0000     0.00000000    -5.40000000     0.00000000
    2 Li                   3.0000     0.00000000     5.40000000     0.00000000

      Atomic Mass 
      ----------- 

      Li                 7.016000


 Effective nuclear repulsion energy (a.u.)       0.8333333333

            Nuclear Dipole moment (a.u.) 
            ----------------------------
        X                 Y               Z
 ---------------- ---------------- ----------------
     0.0000000000    -0.0000000000     0.0000000000


            XYZ format geometry
            -------------------
     2
 geometry
 Li                    0.00000000    -2.85755714     0.00000000
 Li                    0.00000000     2.85755714     0.00000000



 Summary of "ao basis" -> "" (cartesian)
 ------------------------------------------------------------------------------
       Tag                 Description            Shells   Functions and Types
 ---------------- ------------------------------  ------  ---------------------
 *                          cc-pVTZ                   on all atoms 


                      Basis "ao basis" -> "ao basis" (cartesian)
                      -----
  Li (Lithium)
  ------------
            Exponent  Coefficients 
       -------------- ---------------------------------------------------------
  1 S  5.98800000E+03  0.000133
  1 S  8.98900000E+02  0.001025
  1 S  2.05900000E+02  0.005272
  1 S  5.92400000E+01  0.020929
  1 S  1.98700000E+01  0.066340
  1 S  7.40600000E+00  0.165775
  1 S  2.93000000E+00  0.315038
  1 S  1.18900000E+00  0.393523
  1 S  4.79800000E-01  0.190870

  2 S  5.98800000E+03 -0.000021
  2 S  8.98900000E+02 -0.000161
  2 S  2.05900000E+02 -0.000820
  2 S  5.92400000E+01 -0.003326
  2 S  1.98700000E+01 -0.010519
  2 S  7.40600000E+00 -0.028097
  2 S  2.93000000E+00 -0.055936
  2 S  1.18900000E+00 -0.099237
  2 S  4.79800000E-01 -0.112189

  3 S  7.50900000E-02  1.000000

  4 S  2.83200000E-02  1.000000

  5 P  3.26600000E+00  0.008630
  5 P  6.51100000E-01  0.047538
  5 P  1.69600000E-01  0.209772

  6 P  5.57800000E-02  1.000000

  7 P  2.05000000E-02  1.000000

  8 D  1.87400000E-01  1.000000

  9 D  8.01000000E-02  1.000000

 10 F  1.82900000E-01  1.000000



 Summary of "ao basis" -> "ao basis" (cartesian)
 ------------------------------------------------------------------------------
       Tag                 Description            Shells   Functions and Types
 ---------------- ------------------------------  ------  ---------------------
 Li                         cc-pVTZ                 10       35   4s3p2d1f



                            NWChem Direct MCSCF Module
                            --------------------------


                                        Li2


     -----------------------------------
       Basis functions:             70
       Inactive shells:              0
       Active shells:                4
       Active electrons:             6
       Symmetry:                    a       
       Multiplicity:                 1
       Orbital rotations:          264
     -----------------------------------

     -----------------------------------
       E2 extrapolation:             F
       Conjugacy:                    T
       Micro CI relax:               T
       Canonical orbitals:           T
       Maximum iterations:          40
       Converge threshold:    1.00E-04
       Conjugacy resets:            20
       Initial levelshift:        0.10
     -----------------------------------

 Loading old vectors from job with title :

Li2


   input molecular orbitals = ./Li2.mos
  output molecular orbtials = ./Li2.mos

       No. of determinants:            16


  Starting Orbital Energies
    -2.478450    -2.478450    -0.118513    -0.077098     0.026569     0.026569
     0.031696     0.041704     0.041704     0.048012     0.101983     0.111229
     0.117900     0.117900     0.123262     0.123609     0.123609     0.135827
     0.207781     0.207781     0.223419     0.224235     0.224235     0.232630
     0.232630     0.260344     0.260344     0.305343     0.360736     0.360736
     0.367493     0.373087     0.373087     0.395150     0.397473     0.450618
     0.712380     0.712380     0.725831     0.725831     0.733437     0.733437
     0.736173     0.738107     0.739497     0.739497     0.751193     0.751193
     0.751449     0.751449     0.751561     0.751561     0.752400     0.752400
     0.752935     0.752935     0.756420     0.777814     0.777814     0.850259
     0.927586     0.927586     0.935428     0.935428     0.949419     0.963710
     1.352848     1.376098     6.356281     6.366566

  Orbital Symmetry Irreps
a    a    a    a    a    a    a    a    a    a    a    a    a    a    a   
a    a    a    a    a    a    a    a    a    a    a    a    a    a    a   
a    a    a    a    a    a    a    a    a    a    a    a    a    a    a   
a    a    a    a    a    a    a    a    a    a    a    a    a    a    a   
a    a    a    a    a    a    a    a    a    a   

 Integral file          = ./Li2.aoints.0
 Record size in doubles =  65536        No. of integs per rec  =  43688
 Max. records in memory =     99        Max. records in file   = 280049
 No. of bits per label  =      8        No. of bits per value  =     64


 #quartets = 2.120D+04 #integrals = 7.954D+05 #direct =  0.0% #cached =100.0%




          %%%%% MacroIteration   1 %%%%%


          Number of sigma calls:        5
                       o<<<<< (aa):             0.00
                       o<<<<< (bb):             0.00
                       o<<<<< (ab):             0.00
                       o<<<<< (total)           0.00
                       o<<<<< (aa) ff           0.00
                       o<<<<< (aa) gop          0.00
                       o<<<<< (aa) dot          0.00
                       o<<<<< (ab) str          0.00
                       o<<<<< (ab) gath         0.00
                       o<<<<< (ab) dotab        0.00
                       o<<<<< (ab) scat         0.00
                       o<<<<< (ab) sync         0.00
                       o<<<<< Density           0.00
                       o<<<<< Density one       0.00
                       o<<<<< Density two       0.00
                       o<<<<< Density ab        0.00
                       o<<<<< Spin adapt        0.00
                       o<<<<< Symm adapt        0.00

                       o<<<<< (ab) max sync:      0.00

           >>>| Valence CI:            -15.699463615489
           >>>| MCSCF energy:          -14.866130282156
           >>>| Gradient norm:          0.498538024D-03
     --- Warning:   15 Hessian diagonals < 0.05 ---

                              ----- Line search ------

        step       energy         lsg     num-lsg   num-lsh   lsrat    time
      ------- ---------------- --------- --------- --------- ------- --------
       0.0000     -14.86613028 -2.68D-07  0.00D+00  0.00D+00 0.0D+00      1.0

          Number of sigma calls:        4
                       o<<<<< (aa):             0.00
                       o<<<<< (bb):             0.00
                       o<<<<< (ab):             0.00
                       o<<<<< (total)           0.00
                       o<<<<< (aa) ff           0.00
                       o<<<<< (aa) gop          0.00
                       o<<<<< (aa) dot          0.00
                       o<<<<< (ab) str          0.00
                       o<<<<< (ab) gath         0.00
                       o<<<<< (ab) dotab        0.00
                       o<<<<< (ab) scat         0.00
                       o<<<<< (ab) sync         0.00
                       o<<<<< Density           0.00
                       o<<<<< Density one       0.00
                       o<<<<< Density two       0.00
                       o<<<<< Density ab        0.00
                       o<<<<< Spin adapt        0.00
                       o<<<<< Symm adapt        0.00

                       o<<<<< (ab) max sync:      0.00
       1.0000     -14.86613043 -2.91D-08 -2.92D-08  2.39D-07 1.1D-01      1.1

          Number of sigma calls:        3
                       o<<<<< (aa):             0.00
                       o<<<<< (bb):             0.00
                       o<<<<< (ab):             0.00
                       o<<<<< (total)           0.00
                       o<<<<< (aa) ff           0.00
                       o<<<<< (aa) gop          0.00
                       o<<<<< (aa) dot          0.00
                       o<<<<< (ab) str          0.00
                       o<<<<< (ab) gath         0.00
                       o<<<<< (ab) dotab        0.00
                       o<<<<< (ab) scat         0.00
                       o<<<<< (ab) sync         0.00
                       o<<<<< Density           0.00
                       o<<<<< Density one       0.00
                       o<<<<< Density two       0.00
                       o<<<<< Density ab        0.00
                       o<<<<< Spin adapt        0.00
                       o<<<<< Symm adapt        0.00

                       o<<<<< (ab) max sync:      0.00
       1.1222     -14.86613043  2.16D-12  2.52D-12  2.39D-07 8.0D-06      1.1
     --- Orbitals canonicalized ---



          %%%%% MacroIteration   2 %%%%%


          Number of sigma calls:        5
                       o<<<<< (aa):             0.00
                       o<<<<< (bb):             0.00
                       o<<<<< (ab):             0.00
                       o<<<<< (total)           0.00
                       o<<<<< (aa) ff           0.00
                       o<<<<< (aa) gop          0.00
                       o<<<<< (aa) dot          0.00
                       o<<<<< (ab) str          0.00
                       o<<<<< (ab) gath         0.00
                       o<<<<< (ab) dotab        0.00
                       o<<<<< (ab) scat         0.00
                       o<<<<< (ab) sync         0.00
                       o<<<<< Density           0.00
                       o<<<<< Density one       0.00
                       o<<<<< Density two       0.00
                       o<<<<< Density ab        0.00
                       o<<<<< Spin adapt        0.00
                       o<<<<< Symm adapt        0.00

                       o<<<<< (ab) max sync:      0.00

           >>>| Valence CI:            -15.699463765732
           >>>| MCSCF energy:          -14.866130432399
           >>>| Gradient norm:          0.481241069D-04




     ==============================
            MCSCF Converged
     ==============================



          Canonical Eigenvalues

              1      
    1   -2.4784
    2   -2.4784
    3   -0.1177
    4   -0.0779
    5    0.0266
    6    0.0266
    7    0.0316
    8    0.0415
    9    0.0415
   10    0.0479
   11    0.1019
   12    0.1116
   13    0.1180
   14    0.1180
   15    0.1227
   16    0.1235
   17    0.1235
   18    0.1354
   19    0.2083
   20    0.2083
   21    0.2219
   22    0.2245
   23    0.2245
   24    0.2323
   25    0.2323
   26    0.2590
   27    0.2590
   28    0.3040
   29    0.3608
   30    0.3608
   31    0.3661
   32    0.3729
   33    0.3729
   34    0.3948
   35    0.3977
   36    0.4490
   37    0.7127
   38    0.7127
   39    0.7261
   40    0.7261
   41    0.7333
   42    0.7333
   43    0.7350
   44    0.7382
   45    0.7398
   46    0.7398
   47    0.7512
   48    0.7512
   49    0.7514
   50    0.7514
   51    0.7515
   52    0.7515
   53    0.7524
   54    0.7524
   55    0.7527
   56    0.7527
   57    0.7559
   58    0.7756
   59    0.7756
   60    0.8459
   61    0.9274
   62    0.9274
   63    0.9353
   64    0.9353
   65    0.9479
   66    0.9634
   67    1.3527
   68    1.3755
   69    6.3571
   70    6.3657


          Converged CI vector

   Index           Coefficient          Config. Occupation
         1          0.78859949          1  2  3  1  2  3
         6         -0.61490636          1  2  4  1  2  4

          Number of sigma calls:        1
                       o<<<<< (aa):             0.00
                       o<<<<< (bb):             0.00
                       o<<<<< (ab):             0.00
                       o<<<<< (total)           0.00
                       o<<<<< (aa) ff           0.00
                       o<<<<< (aa) gop          0.00
                       o<<<<< (aa) dot          0.00
                       o<<<<< (ab) str          0.00
                       o<<<<< (ab) gath         0.00
                       o<<<<< (ab) dotab        0.00
                       o<<<<< (ab) scat         0.00
                       o<<<<< (ab) sync         0.00
                       o<<<<< Density           0.00
                       o<<<<< Density one       0.00
                       o<<<<< Density two       0.00
                       o<<<<< Density ab        0.00
                       o<<<<< Spin adapt        0.00
                       o<<<<< Symm adapt        0.00

                       o<<<<< (ab) max sync:      0.00



          Natural orbital occupation numbers

              1      
    1    2.0000
    2    2.0000
    3    1.2438
    4    0.7562


          Number of sigma calls:        5
                       o<<<<< (aa):             0.00
                       o<<<<< (bb):             0.00
                       o<<<<< (ab):             0.00
                       o<<<<< (total)           0.00
                       o<<<<< (aa) ff           0.00
                       o<<<<< (aa) gop          0.00
                       o<<<<< (aa) dot          0.00
                       o<<<<< (ab) str          0.00
                       o<<<<< (ab) gath         0.00
                       o<<<<< (ab) dotab        0.00
                       o<<<<< (ab) scat         0.00
                       o<<<<< (ab) sync         0.00
                       o<<<<< Density           0.00
                       o<<<<< Density one       0.00
                       o<<<<< Density two       0.00
                       o<<<<< Density ab        0.00
                       o<<<<< Spin adapt        0.00
                       o<<<<< Symm adapt        0.00

                       o<<<<< (ab) max sync:      0.00


       Final MCSCF results 
       ------------------- 

       Total MCSCF energy =    -14.866130432398
            Gradient norm =      4.8D-05

    CPU time for solution =      1.0s
   Wall time for solution =      1.0s



                        Analysis of MCSCF natural orbitals
                        ----------------------------------

 Vector    1  Occ=2.000000D+00  E=-2.478422D+00  Symmetry=a
              MO Center=  2.7D-13, -1.3D-06, -4.9D-14, r^2= 8.3D+00
   Bfn.  Coefficient  Atom+Function         Bfn.  Coefficient  Atom+Function  
  ----- ------------  ---------------      ----- ------------  ---------------
     1      0.704563  1 Li s                 36      0.704563  2 Li s          

 Vector    2  Occ=2.000000D+00  E=-2.478422D+00  Symmetry=a
              MO Center=  6.4D-14,  1.3D-06,  1.8D-14, r^2= 8.3D+00
   Bfn.  Coefficient  Atom+Function         Bfn.  Coefficient  Atom+Function  
  ----- ------------  ---------------      ----- ------------  ---------------
     1      0.704541  1 Li s                 36     -0.704541  2 Li s          

 Vector    3  Occ=1.243779D+00  E=-1.177422D-01  Symmetry=a
              MO Center=  9.4D-13,  5.0D-12, -2.7D-12, r^2= 1.2D+01
   Bfn.  Coefficient  Atom+Function         Bfn.  Coefficient  Atom+Function  
  ----- ------------  ---------------      ----- ------------  ---------------
     3      0.374254  1 Li s                 38      0.374254  2 Li s          
     4      0.369256  1 Li s                 39      0.369256  2 Li s          
     2      0.184140  1 Li s                 37      0.184140  2 Li s          

 Vector    4  Occ=7.562212D-01  E=-7.792114D-02  Symmetry=a
              MO Center=  2.5D-12,  1.8D-12,  8.1D-13, r^2= 1.4D+01
   Bfn.  Coefficient  Atom+Function         Bfn.  Coefficient  Atom+Function  
  ----- ------------  ---------------      ----- ------------  ---------------
     3      0.439457  1 Li s                 38     -0.439457  2 Li s          
     4      0.378755  1 Li s                 39     -0.378755  2 Li s          
     2      0.203141  1 Li s                 37     -0.203141  2 Li s          

 Vector    5  Occ=0.000000D+00  E= 2.661435D-02  Symmetry=a
              MO Center= -3.6D-12, -4.8D-11,  3.9D-12, r^2= 2.4D+01
   Bfn.  Coefficient  Atom+Function         Bfn.  Coefficient  Atom+Function  
  ----- ------------  ---------------      ----- ------------  ---------------
    13      0.491662  1 Li pz                48      0.491662  2 Li pz         
    11     -0.432529  1 Li px                46     -0.432529  2 Li px         

 Vector    6  Occ=0.000000D+00  E= 2.661435D-02  Symmetry=a
              MO Center=  2.7D-13, -4.8D-11,  6.0D-13, r^2= 2.4D+01
   Bfn.  Coefficient  Atom+Function         Bfn.  Coefficient  Atom+Function  
  ----- ------------  ---------------      ----- ------------  ---------------
    11      0.491662  1 Li px                46      0.491662  2 Li px         
    13      0.432529  1 Li pz                48      0.432529  2 Li pz         

 Vector    7  Occ=0.000000D+00  E= 3.159893D-02  Symmetry=a
              MO Center= -3.2D-13, -2.1D-10,  1.6D-13, r^2= 2.7D+01
   Bfn.  Coefficient  Atom+Function         Bfn.  Coefficient  Atom+Function  
  ----- ------------  ---------------      ----- ------------  ---------------
    12      0.640492  1 Li py                47     -0.640492  2 Li py         
     4     -0.339028  1 Li s                 39     -0.339028  2 Li s          

 Vector    8  Occ=0.000000D+00  E= 4.153129D-02  Symmetry=a
              MO Center= -3.1D-13,  4.8D-11,  2.2D-13, r^2= 3.0D+01
   Bfn.  Coefficient  Atom+Function         Bfn.  Coefficient  Atom+Function  
  ----- ------------  ---------------      ----- ------------  ---------------
    13      0.910328  1 Li pz                48     -0.910328  2 Li pz         
    10     -0.150426  1 Li pz                45      0.150426  2 Li pz         

 Vector    9  Occ=0.000000D+00  E= 4.153129D-02  Symmetry=a
              MO Center= -8.3D-12,  4.7D-11, -3.8D-13, r^2= 3.0D+01
   Bfn.  Coefficient  Atom+Function         Bfn.  Coefficient  Atom+Function  
  ----- ------------  ---------------      ----- ------------  ---------------
    11      0.910328  1 Li px                46     -0.910328  2 Li px         
     8     -0.150426  1 Li px                43      0.150426  2 Li px         

 Vector   10  Occ=0.000000D+00  E= 4.794400D-02  Symmetry=a
              MO Center=  3.9D-12,  2.0D-10,  8.4D-13, r^2= 4.5D+01
   Bfn.  Coefficient  Atom+Function         Bfn.  Coefficient  Atom+Function  
  ----- ------------  ---------------      ----- ------------  ---------------
    12      1.387356  1 Li py                47      1.387356  2 Li py         
     4      0.616374  1 Li s                 39     -0.616374  2 Li s          
     9     -0.280499  1 Li py                44     -0.280499  2 Li py         

 Vector   11  Occ=0.000000D+00  E= 1.018810D-01  Symmetry=a
              MO Center= -3.6D-12,  2.6D-10,  2.8D-13, r^2= 2.6D+01
   Bfn.  Coefficient  Atom+Function         Bfn.  Coefficient  Atom+Function  
  ----- ------------  ---------------      ----- ------------  ---------------
     4      1.850303  1 Li s                 39      1.850303  2 Li s          
     3     -1.452038  1 Li s                 38     -1.452038  2 Li s          
    23     -0.435829  1 Li dyy               58     -0.435829  2 Li dyy        
    20     -0.332934  1 Li dxx               25     -0.332934  1 Li dzz        
    55     -0.332934  2 Li dxx               60     -0.332934  2 Li dzz        

 Vector   12  Occ=0.000000D+00  E= 1.115881D-01  Symmetry=a
              MO Center= -7.3D-13, -9.2D-11,  4.7D-13, r^2= 2.2D+01
   Bfn.  Coefficient  Atom+Function         Bfn.  Coefficient  Atom+Function  
  ----- ------------  ---------------      ----- ------------  ---------------
     9      1.281634  1 Li py                44     -1.281634  2 Li py         
    12     -0.945819  1 Li py                47      0.945819  2 Li py         
     3      0.290655  1 Li s                 38      0.290655  2 Li s          
    23      0.232915  1 Li dyy               58      0.232915  2 Li dyy        
     4     -0.228317  1 Li s                 39     -0.228317  2 Li s          

 Vector   13  Occ=0.000000D+00  E= 1.179908D-01  Symmetry=a
              MO Center=  1.1D-12, -2.8D-10, -3.6D-12, r^2= 2.1D+01
   Bfn.  Coefficient  Atom+Function         Bfn.  Coefficient  Atom+Function  
  ----- ------------  ---------------      ----- ------------  ---------------
    10      1.140741  1 Li pz                45      1.140741  2 Li pz         
    13     -0.710629  1 Li pz                48     -0.710629  2 Li pz         
     8     -0.472184  1 Li px                43     -0.472184  2 Li px         
    11      0.294149  1 Li px                46      0.294149  2 Li px         

 Vector   14  Occ=0.000000D+00  E= 1.179908D-01  Symmetry=a
              MO Center=  3.7D-12, -2.8D-10,  1.8D-12, r^2= 2.1D+01
   Bfn.  Coefficient  Atom+Function         Bfn.  Coefficient  Atom+Function  
  ----- ------------  ---------------      ----- ------------  ---------------
     8      1.140741  1 Li px                43      1.140741  2 Li px         
    11     -0.710629  1 Li px                46     -0.710629  2 Li px         
    10      0.472184  1 Li pz                45      0.472184  2 Li pz         
    13     -0.294149  1 Li pz                48     -0.294149  2 Li pz         


 Wrote Lagrangian and 1- and 2-particle density matrices to ./Li2.mcpdm


     Multipole analysis of the density
     ---------------------------------

     L   x y z        total        nuclear
     -   - - -        -----        -------
     0   0 0 0     -0.000000      6.000000

     1   1 0 0     -0.000000      0.000000
     1   0 1 0     -0.000000     -0.000000
     1   0 0 1      0.000000      0.000000

     2   2 0 0    -12.465466      0.000000
     2   1 1 0     -0.000000      0.000000
     2   1 0 1     -0.000000      0.000000
     2   0 2 0    -10.916581    174.960000
     2   0 1 1      0.000000      0.000000
     2   0 0 2    -12.465466      0.000000


  Mulliken analysis of the total density
  --------------------------------------

    Atom       Charge   Shell Charges
 -----------   ------   -------------------------------------------------------
    1 Li   3     3.00   1.99 -0.01  0.51  0.51  0.00 -0.00  0.00 -0.00 -0.00 -0.00
    2 Li   3     3.00   1.99 -0.01  0.51  0.51  0.00 -0.00  0.00 -0.00 -0.00 -0.00

    Mulliken analysis of the active space density
    ---------------------------------------------

    Atom       Charge   Shell Charges
 -----------   ------   -------------------------------------------------------
    1 Li   3     3.00   1.99 -0.01  0.51  0.51  0.00 -0.00  0.00 -0.00 -0.00 -0.00
    2 Li   3     3.00   1.99 -0.01  0.51  0.51  0.00 -0.00  0.00 -0.00 -0.00 -0.00

 Parallel integral file used      19 records with       0 large values


 Task  times  cpu:        1.1s     wall:        1.1s


                                NWChem Input Module
                                -------------------


                                 NWChem SCF Module
                                 -----------------


                                        Li2



  ao basis        = "ao basis"
  functions       =    70
  atoms           =     2
  closed shells   =     3
  open shells     =     0
  charge          =   0.00
  wavefunction    = RHF 
  input vectors   = ./Li2.mos
  output vectors  = ./Li2-10.8.mos
  use symmetry    = F
  symmetry adapt  = F


 Summary of "ao basis" -> "ao basis" (cartesian)
 ------------------------------------------------------------------------------
       Tag                 Description            Shells   Functions and Types
 ---------------- ------------------------------  ------  ---------------------
 Li                         cc-pVTZ                 10       35   4s3p2d1f



 Forming initial guess at       1.1s


 Loading old vectors from job with title :

Li2


 Starting SCF solution at       1.1s



 ----------------------------------------------
         Quadratically convergent ROHF

 Convergence threshold     :          1.000E-04
 Maximum no. of iterations :           30
 Final Fock-matrix accuracy:          1.000E-07
 ----------------------------------------------


 Integral file          = ./Li2.aoints.0
 Record size in doubles =  65536        No. of integs per rec  =  43688
 Max. records in memory =     99        Max. records in file   = 280101
 No. of bits per label  =      8        No. of bits per value  =     64


 #quartets = 2.106D+04 #integrals = 7.824D+05 #direct =  0.0% #cached =100.0%



       Final RHF  results 
       ------------------ 

         Total SCF energy =    -14.810532338622
      One-electron energy =    -21.086074776340
      Two-electron energy =      5.442209104385
 Nuclear repulsion energy =      0.833333333333

        Time for solution =      0.1s


             Final eigenvalues
             -----------------

              1      
    1   -2.4784
    2   -2.4784
    3   -0.1177
    4   -0.0779
    5    0.0266
    6    0.0266
    7    0.0316
    8    0.0415
    9    0.0415
   10    0.0479
   11    0.1019
   12    0.1116
   13    0.1180

                       ROHF Final Molecular Orbital Analysis
                       -------------------------------------

 Vector    2  Occ=2.000000D+00  E=-2.478422D+00
              MO Center=  6.4D-14,  1.3D-06,  1.8D-14, r^2= 8.3D+00
   Bfn.  Coefficient  Atom+Function         Bfn.  Coefficient  Atom+Function  
  ----- ------------  ---------------      ----- ------------  ---------------
     1      0.704541  1 Li s                 36     -0.704541  2 Li s          

 Vector    3  Occ=2.000000D+00  E=-1.177422D-01
              MO Center=  9.4D-13,  5.0D-12, -2.7D-12, r^2= 1.2D+01
   Bfn.  Coefficient  Atom+Function         Bfn.  Coefficient  Atom+Function  
  ----- ------------  ---------------      ----- ------------  ---------------
     3      0.374254  1 Li s                 38      0.374254  2 Li s          
     4      0.369256  1 Li s                 39      0.369256  2 Li s          
     2      0.184140  1 Li s                 37      0.184140  2 Li s          

 Vector    4  Occ=0.000000D+00  E=-7.792114D-02
              MO Center=  2.5D-12,  1.8D-12,  8.1D-13, r^2= 1.4D+01
   Bfn.  Coefficient  Atom+Function         Bfn.  Coefficient  Atom+Function  
  ----- ------------  ---------------      ----- ------------  ---------------
     3      0.439457  1 Li s                 38     -0.439457  2 Li s          
     4      0.378755  1 Li s                 39     -0.378755  2 Li s          
     2      0.203141  1 Li s                 37     -0.203141  2 Li s          

 Vector    5  Occ=0.000000D+00  E= 2.661435D-02
              MO Center= -3.6D-12, -4.8D-11,  3.9D-12, r^2= 2.4D+01
   Bfn.  Coefficient  Atom+Function         Bfn.  Coefficient  Atom+Function  
  ----- ------------  ---------------      ----- ------------  ---------------
    13      0.491662  1 Li pz                48      0.491662  2 Li pz         
    11     -0.432529  1 Li px                46     -0.432529  2 Li px         

 Vector    6  Occ=0.000000D+00  E= 2.661435D-02
              MO Center=  2.7D-13, -4.8D-11,  6.0D-13, r^2= 2.4D+01
   Bfn.  Coefficient  Atom+Function         Bfn.  Coefficient  Atom+Function  
  ----- ------------  ---------------      ----- ------------  ---------------
    11      0.491662  1 Li px                46      0.491662  2 Li px         
    13      0.432529  1 Li pz                48      0.432529  2 Li pz         

 Vector    7  Occ=0.000000D+00  E= 3.159893D-02
              MO Center= -3.2D-13, -2.1D-10,  1.6D-13, r^2= 2.7D+01
   Bfn.  Coefficient  Atom+Function         Bfn.  Coefficient  Atom+Function  
  ----- ------------  ---------------      ----- ------------  ---------------
    12      0.640492  1 Li py                47     -0.640492  2 Li py         
     4     -0.339028  1 Li s                 39     -0.339028  2 Li s          

 Vector    8  Occ=0.000000D+00  E= 4.153129D-02
              MO Center= -3.1D-13,  4.8D-11,  2.2D-13, r^2= 3.0D+01
   Bfn.  Coefficient  Atom+Function         Bfn.  Coefficient  Atom+Function  
  ----- ------------  ---------------      ----- ------------  ---------------
    13      0.910328  1 Li pz                48     -0.910328  2 Li pz         
    10     -0.150426  1 Li pz                45      0.150426  2 Li pz         

 Vector    9  Occ=0.000000D+00  E= 4.153129D-02
              MO Center= -8.3D-12,  4.7D-11, -3.8D-13, r^2= 3.0D+01
   Bfn.  Coefficient  Atom+Function         Bfn.  Coefficient  Atom+Function  
  ----- ------------  ---------------      ----- ------------  ---------------
    11      0.910328  1 Li px                46     -0.910328  2 Li px         
     8     -0.150426  1 Li px                43      0.150426  2 Li px         

 Vector   10  Occ=0.000000D+00  E= 4.794400D-02
              MO Center=  3.9D-12,  2.0D-10,  8.4D-13, r^2= 4.5D+01
   Bfn.  Coefficient  Atom+Function         Bfn.  Coefficient  Atom+Function  
  ----- ------------  ---------------      ----- ------------  ---------------
    12      1.387356  1 Li py                47      1.387356  2 Li py         
     4      0.616374  1 Li s                 39     -0.616374  2 Li s          
     9     -0.280499  1 Li py                44     -0.280499  2 Li py         

 Vector   11  Occ=0.000000D+00  E= 1.018810D-01
              MO Center= -3.6D-12,  2.6D-10,  2.8D-13, r^2= 2.6D+01
   Bfn.  Coefficient  Atom+Function         Bfn.  Coefficient  Atom+Function  
  ----- ------------  ---------------      ----- ------------  ---------------
     4      1.850303  1 Li s                 39      1.850303  2 Li s          
     3     -1.452038  1 Li s                 38     -1.452038  2 Li s          
    23     -0.435829  1 Li dyy               58     -0.435829  2 Li dyy        
    20     -0.332934  1 Li dxx               25     -0.332934  1 Li dzz        
    55     -0.332934  2 Li dxx               60     -0.332934  2 Li dzz        

 Vector   12  Occ=0.000000D+00  E= 1.115881D-01
              MO Center= -7.3D-13, -9.2D-11,  4.7D-13, r^2= 2.2D+01
   Bfn.  Coefficient  Atom+Function         Bfn.  Coefficient  Atom+Function  
  ----- ------------  ---------------      ----- ------------  ---------------
     9      1.281634  1 Li py                44     -1.281634  2 Li py         
    12     -0.945819  1 Li py                47      0.945819  2 Li py         
     3      0.290655  1 Li s                 38      0.290655  2 Li s          
    23      0.232915  1 Li dyy               58      0.232915  2 Li dyy        
     4     -0.228317  1 Li s                 39     -0.228317  2 Li s          

 Vector   13  Occ=0.000000D+00  E= 1.179908D-01
              MO Center=  1.1D-12, -2.8D-10, -3.6D-12, r^2= 2.1D+01
   Bfn.  Coefficient  Atom+Function         Bfn.  Coefficient  Atom+Function  
  ----- ------------  ---------------      ----- ------------  ---------------
    10      1.140741  1 Li pz                45      1.140741  2 Li pz         
    13     -0.710629  1 Li pz                48     -0.710629  2 Li pz         
     8     -0.472184  1 Li px                43     -0.472184  2 Li px         
    11      0.294149  1 Li px                46      0.294149  2 Li px         

 Vector   14  Occ=0.000000D+00  E= 1.179908D-01
              MO Center=  3.7D-12, -2.8D-10,  1.8D-12, r^2= 2.1D+01
   Bfn.  Coefficient  Atom+Function         Bfn.  Coefficient  Atom+Function  
  ----- ------------  ---------------      ----- ------------  ---------------
     8      1.140741  1 Li px                43      1.140741  2 Li px         
    11     -0.710629  1 Li px                46     -0.710629  2 Li px         
    10      0.472184  1 Li pz                45      0.472184  2 Li pz         
    13     -0.294149  1 Li pz                48     -0.294149  2 Li pz         

 Vector   15  Occ=0.000000D+00  E= 1.227318D-01
              MO Center= -9.2D-12, -9.9D-11,  1.1D-11, r^2= 2.3D+01
   Bfn.  Coefficient  Atom+Function         Bfn.  Coefficient  Atom+Function  
  ----- ------------  ---------------      ----- ------------  ---------------
     4      1.327617  1 Li s                 39     -1.327617  2 Li s          
     9      0.936793  1 Li py                44      0.936793  2 Li py         
     3     -0.906401  1 Li s                 38      0.906401  2 Li s          
    12     -0.328364  1 Li py                47     -0.328364  2 Li py         
    23     -0.311332  1 Li dyy               58      0.311332  2 Li dyy        

 Vector   16  Occ=0.000000D+00  E= 1.234786D-01
              MO Center=  1.7D-12,  2.8D-10, -1.1D-11, r^2= 2.4D+01
   Bfn.  Coefficient  Atom+Function         Bfn.  Coefficient  Atom+Function  
  ----- ------------  ---------------      ----- ------------  ---------------
    10      1.244242  1 Li pz                45     -1.244242  2 Li pz         
    13     -1.005130  1 Li pz                48      1.005130  2 Li pz         
     8     -0.235822  1 Li px                43      0.235822  2 Li px         
    11      0.190503  1 Li px                46     -0.190503  2 Li px         

 Vector   17  Occ=0.000000D+00  E= 1.234786D-01
              MO Center=  5.7D-12,  2.8D-10,  1.3D-12, r^2= 2.4D+01
   Bfn.  Coefficient  Atom+Function         Bfn.  Coefficient  Atom+Function  
  ----- ------------  ---------------      ----- ------------  ---------------
     8      1.244242  1 Li px                43     -1.244242  2 Li px         
    11     -1.005130  1 Li px                46      1.005130  2 Li px         
    10      0.235822  1 Li pz                45     -0.235822  2 Li pz         
    13     -0.190503  1 Li pz                48      0.190503  2 Li pz         

 Vector   18  Occ=0.000000D+00  E= 1.354106D-01
              MO Center=  1.2D-12, -7.3D-11, -1.4D-12, r^2= 2.5D+01
   Bfn.  Coefficient  Atom+Function         Bfn.  Coefficient  Atom+Function  
  ----- ------------  ---------------      ----- ------------  ---------------
     4      3.040732  1 Li s                 39     -3.040732  2 Li s          
     3     -1.711310  1 Li s                 38      1.711310  2 Li s          
    12      1.411414  1 Li py                47      1.411414  2 Li py         
     9     -0.729042  1 Li py                44     -0.729042  2 Li py         
    20     -0.419083  1 Li dxx               25     -0.419083  1 Li dzz        

 Vector   19  Occ=0.000000D+00  E= 2.083181D-01
              MO Center= -6.0D-14, -1.5D-11, -2.4D-13, r^2= 1.5D+01
   Bfn.  Coefficient  Atom+Function         Bfn.  Coefficient  Atom+Function  
  ----- ------------  ---------------      ----- ------------  ---------------
    24      1.354234  1 Li dyz               59     -1.354234  2 Li dyz        
    18     -0.291121  1 Li dyz               53      0.291121  2 Li dyz        
    21     -0.215474  1 Li dxy               56      0.215474  2 Li dxy        

 Vector   20  Occ=0.000000D+00  E= 2.083181D-01
              MO Center=  3.8D-13, -1.5D-11,  1.1D-13, r^2= 1.5D+01
   Bfn.  Coefficient  Atom+Function         Bfn.  Coefficient  Atom+Function  
  ----- ------------  ---------------      ----- ------------  ---------------
    21      1.354234  1 Li dxy               56     -1.354234  2 Li dxy        
    15     -0.291121  1 Li dxy               50      0.291121  2 Li dxy        
    24      0.215474  1 Li dyz               59     -0.215474  2 Li dyz        

 Vector   21  Occ=0.000000D+00  E= 2.219429D-01
              MO Center=  9.9D-14, -4.5D-12, -3.1D-14, r^2= 1.6D+01
   Bfn.  Coefficient  Atom+Function         Bfn.  Coefficient  Atom+Function  
  ----- ------------  ---------------      ----- ------------  ---------------
    23      0.742427  1 Li dyy               58      0.742427  2 Li dyy        
     9     -0.380076  1 Li py                44      0.380076  2 Li py         
    20     -0.340637  1 Li dxx               25     -0.340637  1 Li dzz        
    55     -0.340637  2 Li dxx               60     -0.340637  2 Li dzz        
    12      0.279196  1 Li py                47     -0.279196  2 Li py         

 Vector   22  Occ=0.000000D+00  E= 2.244637D-01
              MO Center=  5.0D-13, -1.0D-10, -1.5D-13, r^2= 1.5D+01
   Bfn.  Coefficient  Atom+Function         Bfn.  Coefficient  Atom+Function  
  ----- ------------  ---------------      ----- ------------  ---------------
    22      1.414245  1 Li dxz               57      1.414245  2 Li dxz        
    16     -0.289095  1 Li dxz               51     -0.289095  2 Li dxz        

 Vector   23  Occ=0.000000D+00  E= 2.244637D-01
              MO Center=  5.0D-13, -1.0D-10, -1.5D-13, r^2= 1.5D+01
   Bfn.  Coefficient  Atom+Function         Bfn.  Coefficient  Atom+Function  
  ----- ------------  ---------------      ----- ------------  ---------------
    20      0.707123  1 Li dxx               25     -0.707123  1 Li dzz        
    55      0.707123  2 Li dxx               60     -0.707123  2 Li dzz        

 Vector   24  Occ=0.000000D+00  E= 2.323462D-01
              MO Center=  4.8D-13,  1.0D-10, -1.6D-13, r^2= 1.5D+01
   Bfn.  Coefficient  Atom+Function         Bfn.  Coefficient  Atom+Function  
  ----- ------------  ---------------      ----- ------------  ---------------
    22      1.421706  1 Li dxz               57     -1.421706  2 Li dxz        
    16     -0.277362  1 Li dxz               51      0.277362  2 Li dxz        

 Vector   25  Occ=0.000000D+00  E= 2.323462D-01
              MO Center=  4.8D-13,  1.0D-10, -1.6D-13, r^2= 1.5D+01
   Bfn.  Coefficient  Atom+Function         Bfn.  Coefficient  Atom+Function  
  ----- ------------  ---------------      ----- ------------  ---------------
    20      0.710853  1 Li dxx               25     -0.710853  1 Li dzz        
    55     -0.710853  2 Li dxx               60      0.710853  2 Li dzz        

 Vector   26  Occ=0.000000D+00  E= 2.590467D-01
              MO Center= -7.4D-14,  1.7D-11, -2.4D-13, r^2= 1.6D+01
   Bfn.  Coefficient  Atom+Function         Bfn.  Coefficient  Atom+Function  
  ----- ------------  ---------------      ----- ------------  ---------------
    24      1.463547  1 Li dyz               59      1.463547  2 Li dyz        
    18     -0.249091  1 Li dyz               53     -0.249091  2 Li dyz        
    13      0.220114  1 Li pz                48     -0.220114  2 Li pz         
    21     -0.201135  1 Li dxy               56     -0.201135  2 Li dxy        

 Vector   27  Occ=0.000000D+00  E= 2.590467D-01
              MO Center=  4.4D-13,  1.7D-11,  1.1D-13, r^2= 1.6D+01
   Bfn.  Coefficient  Atom+Function         Bfn.  Coefficient  Atom+Function  
  ----- ------------  ---------------      ----- ------------  ---------------
    21      1.463547  1 Li dxy               56      1.463547  2 Li dxy        
    15     -0.249091  1 Li dxy               50     -0.249091  2 Li dxy        
    11      0.220114  1 Li px                46     -0.220114  2 Li px         
    24      0.201135  1 Li dyz               59      0.201135  2 Li dyz        

 Vector   28  Occ=0.000000D+00  E= 3.040169D-01
              MO Center= -9.7D-14, -1.6D-11,  3.8D-14, r^2= 1.9D+01
   Bfn.  Coefficient  Atom+Function         Bfn.  Coefficient  Atom+Function  
  ----- ------------  ---------------      ----- ------------  ---------------
     4      1.416061  1 Li s                 39     -1.416061  2 Li s          
    12      0.846543  1 Li py                47      0.846543  2 Li py         
    23      0.739857  1 Li dyy               58     -0.739857  2 Li dyy        
     3     -0.692417  1 Li s                 38      0.692417  2 Li s          
    20     -0.573190  1 Li dxx               25     -0.573190  1 Li dzz        

 Vector   29  Occ=0.000000D+00  E= 3.607858D-01
              MO Center= -1.8D-12, -2.1D-10,  4.1D-12, r^2= 1.6D+01
   Bfn.  Coefficient  Atom+Function         Bfn.  Coefficient  Atom+Function  
  ----- ------------  ---------------      ----- ------------  ---------------
    10      1.407083  1 Li pz                45      1.407083  2 Li pz         
     7     -0.596096  1 Li pz                42     -0.596096  2 Li pz         
     8     -0.526790  1 Li px                43     -0.526790  2 Li px         
    28     -0.495384  1 Li fxxz              35     -0.495384  1 Li fzzz       
    63     -0.495384  2 Li fxxz              70     -0.495384  2 Li fzzz       

 Vector   30  Occ=0.000000D+00  E= 3.607858D-01
              MO Center= -4.0D-12, -2.1D-10, -1.3D-12, r^2= 1.6D+01
   Bfn.  Coefficient  Atom+Function         Bfn.  Coefficient  Atom+Function  
  ----- ------------  ---------------      ----- ------------  ---------------
     8      1.407083  1 Li px                43      1.407083  2 Li px         
     5     -0.596096  1 Li px                40     -0.596096  2 Li px         
    10      0.526790  1 Li pz                45      0.526790  2 Li pz         
    26     -0.495384  1 Li fxxx              31     -0.495384  1 Li fxzz       
    61     -0.495384  2 Li fxxx              66     -0.495384  2 Li fxzz       

 Vector   31  Occ=0.000000D+00  E= 3.661455D-01
              MO Center=  8.4D-13, -6.1D-11, -8.0D-13, r^2= 1.4D+01
   Bfn.  Coefficient  Atom+Function         Bfn.  Coefficient  Atom+Function  
  ----- ------------  ---------------      ----- ------------  ---------------
     9      1.445868  1 Li py                44     -1.445868  2 Li py         
     6     -0.634887  1 Li py                41      0.634887  2 Li py         
    12     -0.552815  1 Li py                47      0.552815  2 Li py         
    27     -0.509325  1 Li fxxy              34     -0.509325  1 Li fyzz       
    62      0.509325  2 Li fxxy              69      0.509325  2 Li fyzz       

 Vector   32  Occ=0.000000D+00  E= 3.728695D-01
              MO Center= -1.2D-12,  2.1D-10,  2.5D-12, r^2= 1.6D+01
   Bfn.  Coefficient  Atom+Function         Bfn.  Coefficient  Atom+Function  
  ----- ------------  ---------------      ----- ------------  ---------------
    10      1.494450  1 Li pz                45     -1.494450  2 Li pz         
     7     -0.611112  1 Li pz                13     -0.608394  1 Li pz         
    42      0.611112  2 Li pz                48      0.608394  2 Li pz         
     8     -0.577428  1 Li px                43      0.577428  2 Li px         
    33     -0.522343  1 Li fyyz              68      0.522343  2 Li fyyz       

 Vector   33  Occ=0.000000D+00  E= 3.728695D-01
              MO Center= -2.0D-12,  2.0D-10, -6.4D-13, r^2= 1.6D+01
   Bfn.  Coefficient  Atom+Function         Bfn.  Coefficient  Atom+Function  
  ----- ------------  ---------------      ----- ------------  ---------------
     8      1.494450  1 Li px                43     -1.494450  2 Li px         
     5     -0.611112  1 Li px                11     -0.608394  1 Li px         
    40      0.611112  2 Li px                46      0.608394  2 Li px         
    10      0.577428  1 Li pz                45     -0.577428  2 Li pz         
    29     -0.522343  1 Li fxyy              64      0.522343  2 Li fxyy       

 Vector   34  Occ=0.000000D+00  E= 3.948007D-01
              MO Center=  1.8D-12,  3.6D-09, -1.1D-12, r^2= 2.0D+01
   Bfn.  Coefficient  Atom+Function         Bfn.  Coefficient  Atom+Function  
  ----- ------------  ---------------      ----- ------------  ---------------
     4      1.580955  1 Li s                 39     -1.580955  2 Li s          
     9      1.373144  1 Li py                44      1.373144  2 Li py         
    20     -0.795822  1 Li dxx               25     -0.795822  1 Li dzz        
    55      0.795822  2 Li dxx               60      0.795822  2 Li dzz        
     6     -0.517080  1 Li py                41     -0.517080  2 Li py         

 Vector   35  Occ=0.000000D+00  E= 3.976558D-01
              MO Center=  4.1D-12, -3.3D-09, -1.9D-12, r^2= 1.8D+01
   Bfn.  Coefficient  Atom+Function         Bfn.  Coefficient  Atom+Function  
  ----- ------------  ---------------      ----- ------------  ---------------
     4      1.448067  1 Li s                 39      1.448067  2 Li s          
    20     -0.934776  1 Li dxx               25     -0.934776  1 Li dzz        
    55     -0.934776  2 Li dxx               60     -0.934776  2 Li dzz        
    23     -0.832966  1 Li dyy               58     -0.832966  2 Li dyy        
    17      0.343906  1 Li dyy               52      0.343906  2 Li dyy        

 Vector   36  Occ=0.000000D+00  E= 4.490180D-01
              MO Center=  1.2D-12, -1.6D-10, -7.7D-13, r^2= 1.1D+01
   Bfn.  Coefficient  Atom+Function         Bfn.  Coefficient  Atom+Function  
  ----- ------------  ---------------      ----- ------------  ---------------
     4      1.962795  1 Li s                 39     -1.962795  2 Li s          
     9     -1.066140  1 Li py                44     -1.066140  2 Li py         
    23     -1.060725  1 Li dyy               58      1.060725  2 Li dyy        
    20     -0.821276  1 Li dxx               25     -0.821276  1 Li dzz        
    55      0.821276  2 Li dxx               60      0.821276  2 Li dzz        

 Vector   37  Occ=0.000000D+00  E= 7.127017D-01
              MO Center= -8.2D-13, -5.6D-11,  2.3D-13, r^2= 1.3D+01
   Bfn.  Coefficient  Atom+Function         Bfn.  Coefficient  Atom+Function  
  ----- ------------  ---------------      ----- ------------  ---------------
    18      1.625570  1 Li dyz               53     -1.625570  2 Li dyz        
    24     -0.935316  1 Li dyz               59      0.935316  2 Li dyz        
    33     -0.578024  1 Li fyyz              68     -0.578024  2 Li fyyz       
    28      0.158136  1 Li fxxz              35      0.158136  1 Li fzzz       
    63      0.158136  2 Li fxxz              70      0.158136  2 Li fzzz       


 center of mass
 --------------
 x =   0.00000000 y =  -0.00000000 z =   0.00000000

 moments of inertia (a.u.)
 ------------------
         409.173120000000           0.000000000000           0.000000000000
           0.000000000000           0.000000000000           0.000000000000
           0.000000000000           0.000000000000         409.173120000000

  Mulliken analysis of the total density
  --------------------------------------

    Atom       Charge   Shell Charges
 -----------   ------   -------------------------------------------------------
    1 Li   3     3.00   1.99 -0.01  0.48  0.55  0.00  0.00  0.00  0.00 -0.01 -0.00
    2 Li   3     3.00   1.99 -0.01  0.48  0.55  0.00  0.00  0.00  0.00 -0.01 -0.00

       Multipole analysis of the density wrt the origin
       ------------------------------------------------

     L   x y z        total         open         nuclear
     -   - - -        -----         ----         -------
     0   0 0 0     -0.000000      0.000000      6.000000

     1   1 0 0     -0.000000      0.000000      0.000000
     1   0 1 0     -0.000000      0.000000     -0.000000
     1   0 0 1      0.000000      0.000000      0.000000

     2   2 0 0    -12.767609      0.000000      0.000000
     2   1 1 0     -0.000000      0.000000      0.000000
     2   1 0 1      0.000000      0.000000      0.000000
     2   0 2 0     -7.202616      0.000000    174.960000
     2   0 1 1      0.000000      0.000000      0.000000
     2   0 0 2    -12.767609      0.000000      0.000000


 Parallel integral file used      18 records with       0 large values

                   NWChem Extensible Many-Electron Theory Module
                   ---------------------------------------------

              ======================================================
                   This portion of the program was automatically
                  generated by a Tensor Contraction Engine (TCE).
                  The development of this portion of the program
                 and TCE was supported by US Department of Energy,
                Office of Science, Office of Basic Energy Science.
                      TCE is a product of Battelle and PNNL.
              Please cite: S.Hirata, J.Phys.Chem.A 107, 9887 (2003).
              ======================================================

                                        Li2


            General Information
            -------------------
      Number of processors :     1
         Wavefunction type : Restricted Hartree-Fock
          No. of electrons :     6
           Alpha electrons :     3
            Beta electrons :     3
           No. of orbitals :   140
            Alpha orbitals :    70
             Beta orbitals :    70
        Alpha frozen cores :     0
         Beta frozen cores :     0
     Alpha frozen virtuals :     0
      Beta frozen virtuals :     0
         Spin multiplicity : singlet 
    Number of AO functions :    70
       Number of AO shells :    20
        Use of symmetry is : off
      Symmetry adaption is : off
         Schwarz screening : 0.10D-09

          Correlation Information
          -----------------------
          Calculation type : Coupled-cluster singles & doubles                           
   Perturbative correction : none                                                        
            Max iterations :      300
        Residual threshold : 0.10D-06
     T(0) DIIS level shift : 0.30D+00
     L(0) DIIS level shift : 0.00D+00
     T(1) DIIS level shift : 0.00D+00
     L(1) DIIS level shift : 0.00D+00
     T(R) DIIS level shift : 0.00D+00
     T(I) DIIS level shift : 0.00D+00
   CC-T/L Amplitude update :  5-th order DIIS
                I/O scheme : Global Array Library
        L-threshold :  0.10D-06
        EOM-threshold :  0.10D-06
 no EOMCCSD initial starts read in
 TCE RESTART OPTIONS
 READ_INT:   F
 WRITE_INT:  F
 READ_TA:    F
 WRITE_TA:   F
 READ_XA:    F
 WRITE_XA:   F
 READ_IN3:   F
 WRITE_IN3:  F
 SLICE:      F
 D4D5:       F
 quantumc:   F
 qrotation:  F
 pwtce:      F
 qducc:      T
 nacto:                         0
 nrotv:                         0
 nrot:                          0

            Memory Information
            ------------------
          Available GA space size is    1610607836 doubles
          Available MA space size is    1610609956 doubles

 Maximum block size        32 doubles

 tile_dim =     23

 Block   Spin    Irrep     Size     Offset   Alpha
 -------------------------------------------------
   1    alpha     a      3 doubles       0       1
   2    beta      a      3 doubles       3       1
   3    alpha     a     22 doubles       6       3
   4    alpha     a     22 doubles      28       4
   5    alpha     a     23 doubles      50       5
   6    beta      a     22 doubles      73       3
   7    beta      a     22 doubles      95       4
   8    beta      a     23 doubles     117       5

 Global array virtual files algorithm will be used

 Parallel file system coherency ......... OK

 Integral file          = ./Li2.aoints.0
 Record size in doubles =  65536        No. of integs per rec  =  43688
 Max. records in memory =     99        Max. records in file   = 280101
 No. of bits per label  =      8        No. of bits per value  =     64


 #quartets = 2.125D+04 #integrals = 8.326D+05 #direct =  0.0% #cached =100.0%


 Fock matrix recomputed
 1-e file size   =             4900
 1-e file name   = ./Li2.f1
 Cpu & wall time / sec            0.2            0.2
 4-electron integrals stored in orbital form

 v2    file size   =          5883722
 4-index algorithm nr.  13 is used
 imaxsize =       30
 imaxsize ichop =        0
 Cpu & wall time / sec            2.1            2.1
 T1-number-of-tasks                    3

 t1 file size   =              201
 t1 file name   = ./Li2.t1
 t1 file handle =       -998
 T2-number-of-boxes                   15

 t2 file size   =            67338
 t2 file name   = ./Li2.t2
 t2 file handle =       -996
CCSD iterations
 ---------------------------------------------------------
 Iter          Residuum       Correlation     Cpu    Wall 
 ---------------------------------------------------------
NEW TASK SCHEDULING
CCSD_T1_NTS --- OK
CCSD_T2_NTS --- OK
    1   0.1581706052088  -0.1061079362433     0.2     0.2
    2   0.0414317442357  -0.0967625506422     0.2     0.2
    3   0.0215722663591  -0.0939698444423     0.2     0.2
    4   0.0140456045926  -0.0924618179733     0.2     0.2
    5   0.0100748349201  -0.0915311274940     0.2     0.2
 MICROCYCLE DIIS UPDATE:                    5                    5
    6   0.0039077559522  -0.0893597396941     0.2     0.2
    7   0.0029717775931  -0.0894286946457     0.2     0.2
    8   0.0025311228637  -0.0894028648837     0.2     0.2
    9   0.0021955825616  -0.0893559350391     0.2     0.2
   10   0.0019195953045  -0.0893041122091     0.2     0.2
 MICROCYCLE DIIS UPDATE:                   10                    5
   11   0.0005267661476  -0.0888627300636     0.2     0.2
   12   0.0003918869029  -0.0888575576880     0.2     0.2
   13   0.0003237312306  -0.0888508266857     0.2     0.2
   14   0.0002733016928  -0.0888438889715     0.2     0.2
   15   0.0002334634100  -0.0888374073720     0.2     0.2
 MICROCYCLE DIIS UPDATE:                   15                    5
   16   0.0000687960810  -0.0887944755941     0.2     0.2
   17   0.0000502825097  -0.0887946948652     0.2     0.2
   18   0.0000427588231  -0.0887940341675     0.2     0.2
   19   0.0000371808822  -0.0887931544265     0.2     0.2
   20   0.0000326217305  -0.0887922404726     0.2     0.2
 MICROCYCLE DIIS UPDATE:                   20                    5
   21   0.0000124081453  -0.0887851875167     0.2     0.2
   22   0.0000093122869  -0.0887850707604     0.0     0.2
   23   0.0000077438329  -0.0887848980208     0.0     0.2
   24   0.0000065723582  -0.0887847236175     0.1     0.2
   25   0.0000056395432  -0.0887845621304     0.2     0.2
 MICROCYCLE DIIS UPDATE:                   25                    5
   26   0.0000017903031  -0.0887835223128     0.2     0.2
   27   0.0000013020891  -0.0887835075309     0.2     0.2
   28   0.0000011002082  -0.0887834835108     0.2     0.2
   29   0.0000009517052  -0.0887834571757     0.2     0.2
   30   0.0000008317860  -0.0887834314641     0.2     0.2
 MICROCYCLE DIIS UPDATE:                   30                    5
   31   0.0000003273297  -0.0887832474936     0.2     0.2
   32   0.0000002422992  -0.0887832442824     0.2     0.2
   33   0.0000002016847  -0.0887832397932     0.2     0.2
   34   0.0000001716311  -0.0887832352710     0.2     0.2
   35   0.0000001477053  -0.0887832310825     0.2     0.2
 MICROCYCLE DIIS UPDATE:                   35                    5
   36   0.0000000491613  -0.0887832040993     0.2     0.2
 -----------------------------------------------------------------
 Iterations converged
 CCSD correlation energy / hartree =        -0.088783204099347
 CCSD total energy / hartree       =       -14.899315542721471

 Singles contributions

 Doubles contributions
     4a   (alpha)     4a   (beta ) ---     3a   (alpha)     3a   (beta )       -0.7045162583
     5a   (alpha)     5a   (beta ) ---     3a   (alpha)     3a   (beta )       -0.0366733321
     6a   (alpha)     6a   (beta ) ---     3a   (alpha)     3a   (beta )       -0.0366733321
     7a   (alpha)     7a   (beta ) ---     3a   (alpha)     3a   (beta )       -0.0522494099
     7a   (alpha)    12a   (beta ) ---     3a   (alpha)     3a   (beta )       -0.0359449884
    12a   (alpha)     7a   (beta ) ---     3a   (alpha)     3a   (beta )       -0.0359449884
    12a   (alpha)    12a   (beta ) ---     3a   (alpha)     3a   (beta )       -0.0282057972
 Ground state specification:
 exp(T)|Ref>~(1+T)|Ref>
 ------- a(p)+/a(q) strings ----------

 singles norm

 doubles norm

 Reference string
  0.81749367065545708      :(1a)+ (2a)+ (3a)+ (1b)+ (2b)+ (3b)+ |0>

 Singles strings

 Doubles strings
 -0.57593758206794177      :(4a)+ (4b)+ (3b)  (3a)  (1a)+ (2a)+ (3a)+ (1b)+ (2b)+ (3b)+ |0>
 -------------------------------------
 enrep_tce =   0.83333333333333326     
  EHF(total)         =       -14.81053234
  Shift (HFtot-HFA)  =         0.00000000
 ALL OCCUPIED ORBITALS ARE ACTIVE IN DUCC --> NO SHIFT
 Number of active orbitals                    4
 Number of active alpha electrons                    3
 Number of active beta electrons                    3
  nos                     6
  nvs                   134
 noas                     3
 nobs                     3
 nvas                    67
 nvbs                    67
 nactv                     1
 DUCC MODEL =                     6
 NONHF =  T
 F-T1 correlation    =   -8.9171548411091104E-004
 V-T1-T1 correlation =    1.3604555830644303E-005
 V-T2 correlation    =   -8.7905093171198004E-002
 Total correlation   =   -8.8783204099478277E-002
 F-T1(Ext) correlation         =   -8.9577728300251308E-004
 V-T1(Ext)-T1(Ext) correlation =    1.3203791262853042E-005
 V-T2(Ext) correlation         =   -3.7661316598868178E-002
 Total Ext correlation         =   -3.8543890090607838E-002
1-BODY TIME =  217.055 SECONDS.
  HHHH TIME =  213.730 SECONDS.
  PPPP TIME =    0.770 SECONDS.
  HHHP TIME =    5.954 SECONDS.
  PPPH TIME =    1.020 SECONDS.
  HPHP TIME =    4.928 SECONDS.
  HHPP TIME =    1.250 SECONDS.
 ONE-BODY UNITARY CHECK
 TWO-BODY UNITARY CHECK
                    1                    1                    1                    3  -6.1443830562365902E-010
                    1                    1                    3                    1   6.1443830204588202E-010
                    1                    2                    2                    3  -6.4011307382037461E-010
                    1                    2                    3                    2   6.4113295088783027E-010
                    1                    3                    1                    1   6.1443830562365902E-010
                    1                    3                    2                    2   2.1847488760521285E-011
                    1                    3                    3                    1  -6.0922831501830643E-009
                    1                    3                    3                    3  -7.8455780303318277E-011
                    1                    4                    1                    6   8.2626211428404872E-010
                    1                    4                    2                    5  -1.2605260168996324E-009
                    1                    4                    3                    4  -1.0977842045123420E-008
                    1                    4                    3                    6   8.6282024788775225E-009
                    1                    4                    4                    3  -1.4407004478300678E-009
                    1                    4                    5                    2   1.2605260168996324E-009
                    1                    4                    6                    1   1.1592280378669440E-008
                    1                    4                    6                    3  -8.6282024788775225E-009
                    1                    5                    2                    4  -1.4298493500319864E-009
                    1                    5                    2                    6   1.5251619550626927E-009
                    1                    5                    3                    5  -1.1107437233870421E-008
                    1                    5                    5                    1   1.4299090800307113E-009
                    1                    5                    5                    3  -2.1652754381151773E-009
                    1                    5                    6                    2   1.1748570602487796E-008
                    1                    6                    1                    4  -8.2626211428404872E-010
                    1                    6                    2                    5   7.3102082720488681E-010
                    1                    6                    3                    4   1.7206897739985294E-008
                    1                    6                    3                    6   2.2302809790934915E-007
                    1                    6                    4                    1   1.4407004408911739E-009
                    1                    6                    5                    2  -7.0917335198705800E-010
                    1                    6                    6                    1  -2.3299180806901632E-008
                    1                    6                    6                    3  -2.2310655368833199E-007
                    2                    1                    2                    3   1.9219721436114848E-012
                    2                    1                    3                    2  -2.9418492788297820E-012
                    2                    2                    1                    3  -2.1847488760521285E-011
                    2                    2                    3                    1   2.1847488977180567E-011
                    2                    3                    1                    2   6.4011307382037461E-010
                    2                    3                    2                    1  -1.9219721436114848E-012
                    2                    3                    3                    2  -6.1536370443704413E-009
                    2                    4                    1                    5   1.4298493500319864E-009
                    2                    4                    2                    6  -1.1969326224603449E-010
                    2                    4                    3                    5  -1.3395348066880253E-008
                    2                    4                    4                    2  -1.4299090800307113E-009
                    2                    4                    5                    3   1.2161550932976439E-010
                    2                    4                    6                    2   1.3392405934231633E-008
                    2                    5                    1                    4   1.2605260168996324E-009
                    2                    5                    1                    6  -7.3102082720488681E-010
                    2                    5                    3                    4  -1.3132918523506287E-008
                    2                    5                    3                    6   6.3974782008383024E-009
                    2                    5                    4                    1  -1.2605260168996324E-009
                    2                    5                    4                    3   7.0917336586484581E-010
                    2                    5                    6                    1   1.3154765984846328E-008
                    2                    5                    6                    3  -6.3974782008383024E-009
                    2                    6                    1                    5  -1.5251619550626927E-009
                    2                    6                    2                    4   1.1969326224603449E-010
                    2                    6                    3                    5   1.5183414900366010E-008
                    2                    6                    4                    2   2.1652754172984956E-009
                    2                    6                    5                    1  -1.2161560647427905E-010
                    2                    6                    6                    2  -2.1337051847591937E-008
                    3                    1                    1                    1  -6.1443830204588202E-010
                    3                    1                    1                    3   6.0922831501830643E-009
                    3                    1                    2                    2  -2.1847488977180567E-011
                    3                    1                    3                    3   7.8455780507875080E-011
                    3                    2                    1                    2  -6.4113295088783027E-010
                    3                    2                    2                    1   2.9418492788297820E-012
                    3                    2                    2                    3   6.1536370443704413E-009
                    3                    3                    1                    3   7.8455780303318277E-011
                    3                    3                    3                    1  -7.8455780507875080E-011
                    3                    4                    1                    4   1.0977842045123420E-008
                    3                    4                    1                    6  -1.7206897739985294E-008
                    3                    4                    2                    5   1.3132918523506287E-008
                    3                    4                    3                    6  -3.1733303029572724E-010
                    3                    4                    4                    1  -1.1592280371730546E-008
                    3                    4                    4                    3   2.3299180806901632E-008
                    3                    4                    5                    2  -1.3154765998724116E-008
                    3                    4                    6                    3   3.9578880971224972E-010
                    3                    5                    1                    5   1.1107437233870421E-008
                    3                    5                    2                    4   1.3395348066880253E-008
                    3                    5                    2                    6  -1.5183414900366010E-008
                    3                    5                    4                    2  -1.1748570505343281E-008
                    3                    5                    5                    1  -1.3392405913414951E-008
                    3                    5                    5                    3   2.1337051847591937E-008
                    3                    6                    1                    4  -8.6282024788775225E-009
                    3                    6                    1                    6  -2.2302809790934915E-007
                    3                    6                    2                    5  -6.3974782008383024E-009
                    3                    6                    3                    4   3.1733303029572724E-010
                    3                    6                    4                    1   8.6282024788775225E-009
                    3                    6                    4                    3   2.2310655368703095E-007
                    3                    6                    5                    2   6.3974782008383024E-009
                    3                    6                    6                    1  -3.9578880819436668E-010
                    4                    1                    1                    6  -1.4407004408911739E-009
                    4                    1                    2                    5   1.2605260168996324E-009
                    4                    1                    3                    4   1.1592280371730546E-008
                    4                    1                    3                    6  -8.6282024788775225E-009
                    4                    1                    4                    3   8.2626212122294262E-010
                    4                    1                    5                    2  -1.2605260168996324E-009
                    4                    1                    6                    1  -1.0977842052062314E-008
                    4                    1                    6                    3   8.6282024788775225E-009
                    4                    2                    2                    4   1.4299090800307113E-009
                    4                    2                    2                    6  -2.1652754172984956E-009
                    4                    2                    3                    5   1.1748570505343281E-008
                    4                    2                    5                    1  -1.4298489059427766E-009
                    4                    2                    5                    3   1.5251620522072074E-009
                    4                    2                    6                    2  -1.1107437254687103E-008
                    4                    3                    1                    4   1.4407004478300678E-009
                    4                    3                    2                    5  -7.0917336586484581E-010
                    4                    3                    3                    4  -2.3299180806901632E-008
                    4                    3                    3                    6  -2.2310655368703095E-007
                    4                    3                    4                    1  -8.2626212122294262E-010
                    4                    3                    5                    2   7.3102084108267462E-010
                    4                    3                    6                    1   1.7206897710494995E-008
                    4                    3                    6                    3   2.2302809790761442E-007
                    4                    4                    4                    6  -6.1443830396347383E-010
                    4                    4                    6                    4   6.1443830276670664E-010
                    4                    5                    5                    6  -6.4011307237025420E-010
                    4                    5                    6                    5   6.4113295094204038E-010
                    4                    6                    4                    4   6.1443830396347383E-010
                    4                    6                    5                    5   2.1847488422555450E-011
                    4                    6                    6                    4  -6.0922831501830643E-009
                    4                    6                    6                    6  -7.8455780564202435E-011
                    5                    1                    1                    5  -1.4299090800307113E-009
                    5                    1                    2                    6   1.2161560647427905E-010
                    5                    1                    3                    5   1.3392405913414951E-008
                    5                    1                    4                    2   1.4298489059427766E-009
                    5                    1                    5                    3  -1.1969324142935278E-010
                    5                    1                    6                    2  -1.3395348164024767E-008
                    5                    2                    1                    4  -1.2605260168996324E-009
                    5                    2                    1                    6   7.0917335198705800E-010
                    5                    2                    3                    4   1.3154765998724116E-008
                    5                    2                    3                    6  -6.3974782008383024E-009
                    5                    2                    4                    1   1.2605260168996324E-009
                    5                    2                    4                    3  -7.3102084108267462E-010
                    5                    2                    6                    1  -1.3132918509628499E-008
                    5                    2                    6                    3   6.3974782008383024E-009
                    5                    3                    1                    5   2.1652754381151773E-009
                    5                    3                    2                    4  -1.2161550932976439E-010
                    5                    3                    3                    5  -2.1337051847591937E-008
                    5                    3                    4                    2  -1.5251620522072074E-009
                    5                    3                    5                    1   1.1969324142935278E-010
                    5                    3                    6                    2   1.5183414914243798E-008
                    5                    4                    5                    6   1.9219718861134688E-012
                    5                    4                    6                    5  -2.9418490077792389E-012
                    5                    5                    4                    6  -2.1847488422555450E-011
                    5                    5                    6                    4   2.1847488852666414E-011
                    5                    6                    4                    5   6.4011307237025420E-010
                    5                    6                    5                    4  -1.9219718861134688E-012
                    5                    6                    6                    5  -6.1536370443704413E-009
                    6                    1                    1                    4  -1.1592280378669440E-008
                    6                    1                    1                    6   2.3299180806901632E-008
                    6                    1                    2                    5  -1.3154765984846328E-008
                    6                    1                    3                    6   3.9578880819436668E-010
                    6                    1                    4                    1   1.0977842052062314E-008
                    6                    1                    4                    3  -1.7206897710494995E-008
                    6                    1                    5                    2   1.3132918509628499E-008
                    6                    1                    6                    3  -3.1733302877784419E-010
                    6                    2                    1                    5  -1.1748570602487796E-008
                    6                    2                    2                    4  -1.3392405934231633E-008
                    6                    2                    2                    6   2.1337051847591937E-008
                    6                    2                    4                    2   1.1107437254687103E-008
                    6                    2                    5                    1   1.3395348164024767E-008
                    6                    2                    5                    3  -1.5183414914243798E-008
                    6                    3                    1                    4   8.6282024788775225E-009
                    6                    3                    1                    6   2.2310655368833199E-007
                    6                    3                    2                    5   6.3974782008383024E-009
                    6                    3                    3                    4  -3.9578880971224972E-010
                    6                    3                    4                    1  -8.6282024788775225E-009
                    6                    3                    4                    3  -2.2302809790761442E-007
                    6                    3                    5                    2  -6.3974782008383024E-009
                    6                    3                    6                    1   3.1733302877784419E-010
                    6                    4                    4                    4  -6.1443830276670664E-010
                    6                    4                    4                    6   6.0922831501830643E-009
                    6                    4                    5                    5  -2.1847488852666414E-011
                    6                    4                    6                    6   7.8455780467640679E-011
                    6                    5                    4                    5  -6.4113295094204038E-010
                    6                    5                    5                    4   2.9418490077792389E-012
                    6                    5                    5                    6   6.1536370443704413E-009
                    6                    6                    4                    6   7.8455780564202435E-011
                    6                    6                    6                    4  -7.8455780467640679E-011
 TWO-BODY ANTISYMMETRY CHECK
 TRANSFORMED ~FOCK~ MATRIX
    1    1        -2.5031183267
    1    3         0.0035924562
    1    4        -0.0000000006
    2    2        -2.5031214709
    2    3        -0.0000000008
    2    4        -0.0028584427
    3    1         0.0035924562
    3    2        -0.0000000008
    3    3        -0.1434056867
    4    1        -0.0000000006
    4    2        -0.0028584427
    4    4        -0.0230382438
 begin_one_electron_integrals
    1    1        -4.7184728692
    1    3         0.1193240371
    1    4         0.0000000292
    2    2        -4.7186495295
    2    3        -0.0000000269
    2    4         0.1294754721
    3    1         0.1193240369
    3    2        -0.0000000269
    3    3        -1.0964113788
    4    1         0.0000000292
    4    2         0.1294754721
    4    4        -1.1127562186
 end_one_electron_integrals
 begin_two_electron_integrals
    1    1    1    1        0.8619790769
    1    1    1    2        0.0000003471
    1    1    1    3       -0.0571584624
    1    1    1    4       -0.0000000440
    1    2    1    1        0.0000003471
    1    2    1    2        0.7694955494
    1    2    1    3       -0.0000000129
    1    2    1    4       -0.0650279366
    1    3    1    1       -0.0571584748
    1    3    1    2       -0.0000000129
    1    3    1    3        0.0055976940
    1    3    1    4        0.0000000035
    1    4    1    1       -0.0000000440
    1    4    1    2       -0.0650279366
    1    4    1    3        0.0000000035
    1    4    1    4        0.0099553314
    1    1    2    1        0.0000003471
    1    1    2    2        0.8620571586
    1    1    2    3       -0.0000000129
    1    1    2    4       -0.0650852879
    1    2    2    1        0.7694913372
    1    2    2    2       -0.0000003471
    1    2    2    3       -0.0572482951
    1    2    2    4        0.0000000147
    1    3    2    1       -0.0000000129
    1    3    2    2       -0.0571662580
    1    3    2    4        0.0076720220
    1    4    2    1       -0.0650297287
    1    4    2    2        0.0000000147
    1    4    2    3        0.0076719711
    1    1    3    1       -0.0571584632
    1    1    3    2       -0.0000000129
    1    1    3    3        0.2024416616
    1    1    3    4        0.0000000514
    1    2    3    1       -0.0000000129
    1    2    3    2       -0.0572509853
    1    2    3    4        0.1139637504
    1    3    3    1        0.0061308815
    1    3    3    3       -0.0014889243
    1    3    3    4       -0.0000000004
    1    4    3    1        0.0000000036
    1    4    3    2        0.0080393604
    1    4    3    3       -0.0000000005
    1    4    3    4       -0.0025276827
    1    1    4    1       -0.0000000440
    1    1    4    2       -0.0650852879
    1    1    4    3        0.0000000514
    1    1    4    4        0.2121260129
    1    2    4    1       -0.0650297287
    1    2    4    2        0.0000000147
    1    2    4    3        0.1139635682
    1    3    4    1        0.0000000036
    1    3    4    2        0.0080392932
    1    3    4    3       -0.0000000004
    1    3    4    4       -0.0015526529
    1    4    4    1        0.0077695317
    1    4    4    3       -0.0013795046
    1    4    4    4       -0.0000000004
    2    1    1    1        0.0000003471
    2    1    1    2        0.7694913387
    2    1    1    3       -0.0000000129
    2    1    1    4       -0.0650297287
    2    2    1    1        0.8620571572
    2    2    1    2       -0.0000003471
    2    2    1    3       -0.0571662447
    2    2    1    4        0.0000000147
    2    3    1    1       -0.0000000129
    2    3    1    2       -0.0572483083
    2    3    1    4        0.0076719711
    2    4    1    1       -0.0650852879
    2    4    1    2        0.0000000147
    2    4    1    3        0.0076720220
    2    1    2    1        0.7694955506
    2    1    2    2       -0.0000003471
    2    1    2    3       -0.0572509860
    2    1    2    4        0.0000000147
    2    2    2    1       -0.0000003471
    2    2    2    2        0.8621498054
    2    2    2    3        0.0000000387
    2    2    2    4       -0.0650958311
    2    3    2    1       -0.0572509985
    2    3    2    2        0.0000000387
    2    3    2    3        0.0056014083
    2    3    2    4       -0.0000000035
    2    4    2    1        0.0000000147
    2    4    2    2       -0.0650958311
    2    4    2    3       -0.0000000035
    2    4    2    4        0.0099576612
    2    1    3    1       -0.0000000129
    2    1    3    2       -0.0572482966
    2    1    3    4        0.1139635682
    2    2    3    1       -0.0571662446
    2    2    3    2        0.0000000387
    2    2    3    3        0.2024439243
    2    2    3    4       -0.0000000514
    2    3    3    2        0.0061326167
    2    3    3    3        0.0000000003
    2    3    3    4       -0.0019059768
    2    4    3    1        0.0080392932
    2    4    3    2       -0.0000000036
    2    4    3    3       -0.0020016067
    2    4    3    4        0.0000000006
    2    1    4    1       -0.0650279366
    2    1    4    2        0.0000000147
    2    1    4    3        0.1139637504
    2    2    4    1        0.0000000147
    2    2    4    2       -0.0650958311
    2    2    4    3       -0.0000000514
    2    2    4    4        0.2121283803
    2    3    4    1        0.0080393604
    2    3    4    2       -0.0000000036
    2    3    4    3       -0.0018327104
    2    3    4    4        0.0000000004
    2    4    4    2        0.0077715014
    2    4    4    3        0.0000000003
    2    4    4    4       -0.0016781477
    3    1    1    1       -0.0571584638
    3    1    1    2       -0.0000000129
    3    1    1    3        0.0061308642
    3    1    1    4        0.0000000036
    3    2    1    1       -0.0000000129
    3    2    1    2       -0.0572509853
    3    2    1    4        0.0080393604
    3    3    1    1        0.2024416849
    3    3    1    3       -0.0014889242
    3    3    1    4       -0.0000000005
    3    4    1    1        0.0000000514
    3    4    1    2        0.1139637504
    3    4    1    3       -0.0000000004
    3    4    1    4       -0.0025276827
    3    1    2    1       -0.0000000129
    3    1    2    2       -0.0571662469
    3    1    2    4        0.0080392932
    3    2    2    1       -0.0572482949
    3    2    2    2        0.0000000387
    3    2    2    3        0.0061326016
    3    2    2    4       -0.0000000036
    3    3    2    2        0.2024439457
    3    3    2    3        0.0000000003
    3    3    2    4       -0.0020016067
    3    4    2    1        0.1139635682
    3    4    2    2       -0.0000000514
    3    4    2    3       -0.0019059768
    3    4    2    4        0.0000000006
    3    1    3    1        0.0055976854
    3    1    3    3       -0.0014891473
    3    1    3    4       -0.0000000004
    3    2    3    2        0.0056014019
    3    2    3    3        0.0000000003
    3    2    3    4       -0.0018327104
    3    3    3    1       -0.0014889239
    3    3    3    2        0.0000000003
    3    3    3    3        0.1554979860
    3    4    3    1       -0.0000000004
    3    4    3    2       -0.0018327104
    3    4    3    4        0.0667223285
    3    1    4    1        0.0000000035
    3    1    4    2        0.0076720220
    3    1    4    3       -0.0000000004
    3    1    4    4       -0.0015526529
    3    2    4    1        0.0076719711
    3    2    4    2       -0.0000000035
    3    2    4    3       -0.0019059768
    3    2    4    4        0.0000000004
    3    3    4    1       -0.0000000005
    3    3    4    2       -0.0020016067
    3    3    4    4        0.1634237203
    3    4    4    1       -0.0013795046
    3    4    4    2        0.0000000003
    3    4    4    3        0.0700972189
    4    1    1    1       -0.0000000440
    4    1    1    2       -0.0650297287
    4    1    1    3        0.0000000036
    4    1    1    4        0.0077695317
    4    2    1    1       -0.0650852879
    4    2    1    2        0.0000000147
    4    2    1    3        0.0080392932
    4    3    1    1        0.0000000514
    4    3    1    2        0.1139635682
    4    3    1    3       -0.0000000004
    4    3    1    4       -0.0013795046
    4    4    1    1        0.2121260129
    4    4    1    3       -0.0015526529
    4    4    1    4       -0.0000000004
    4    1    2    1       -0.0650279366
    4    1    2    2        0.0000000147
    4    1    2    3        0.0080393604
    4    2    2    1        0.0000000147
    4    2    2    2       -0.0650958311
    4    2    2    3       -0.0000000036
    4    2    2    4        0.0077715014
    4    3    2    1        0.1139637504
    4    3    2    2       -0.0000000514
    4    3    2    3       -0.0018327104
    4    3    2    4        0.0000000003
    4    4    2    2        0.2121283803
    4    4    2    3        0.0000000004
    4    4    2    4       -0.0016781477
    4    1    3    1        0.0000000035
    4    1    3    2        0.0076719711
    4    1    3    3       -0.0000000005
    4    1    3    4       -0.0013795046
    4    2    3    1        0.0076720220
    4    2    3    2       -0.0000000035
    4    2    3    3       -0.0020016067
    4    2    3    4        0.0000000003
    4    3    3    1       -0.0000000004
    4    3    3    2       -0.0019059768
    4    3    3    4        0.0700972189
    4    4    3    1       -0.0015526529
    4    4    3    2        0.0000000004
    4    4    3    3        0.1634237203
    4    1    4    1        0.0099553314
    4    1    4    3       -0.0025276827
    4    1    4    4       -0.0000000004
    4    2    4    2        0.0099576612
    4    2    4    3        0.0000000006
    4    2    4    4       -0.0016781477
    4    3    4    1       -0.0025276827
    4    3    4    2        0.0000000006
    4    3    4    3        0.0667223285
    4    4    4    1       -0.0000000004
    4    4    4    2       -0.0016781477
    4    4    4    4        0.1652882078
 end_two_electron_integrals

 Parallel integral file used      20 records with       0 large values


 Task  times  cpu:      480.8s     wall:      483.8s


                                NWChem Input Module
                                -------------------


 Summary of allocated global arrays
-----------------------------------
  No active global arrays


MA_summarize_allocated_blocks: starting scan ...
MA_summarize_allocated_blocks: scan completed: 0 heap blocks, 0 stack blocks
MA usage statistics:

	allocation statistics:
					      heap	     stack
					      ----	     -----
	current number of blocks	         0	         0
	maximum number of blocks	        18	        42
	current total bytes		         0	         0
	maximum total bytes		  51988456	9998573272
	maximum total K-bytes		     51989	   9998574
	maximum total M-bytes		        52	      9999


                                     CITATION
                                     --------
                Please cite the following reference when publishing
                           results obtained with NWChem:

          E. Apra, E. J. Bylaska, W. A. de Jong, N. Govind, K. Kowalski,
       T. P. Straatsma, M. Valiev, H. J. J. van Dam, Y. Alexeev, J. Anchell,
       V. Anisimov, F. W. Aquino, R. Atta-Fynn, J. Autschbach, N. P. Bauman,
     J. C. Becca, D. E. Bernholdt, K. Bhaskaran-Nair, S. Bogatko, P. Borowski,
         J. Boschen, J. Brabec, A. Bruner, E. Cauet, Y. Chen, G. N. Chuev,
      C. J. Cramer, J. Daily, M. J. O. Deegan, T. H. Dunning Jr., M. Dupuis,
   K. G. Dyall, G. I. Fann, S. A. Fischer, A. Fonari, H. Fruchtl, L. Gagliardi,
      J. Garza, N. Gawande, S. Ghosh, K. Glaesemann, A. W. Gotz, J. Hammond,
       V. Helms, E. D. Hermes, K. Hirao, S. Hirata, M. Jacquelin, L. Jensen,
   B. G. Johnson, H. Jonsson, R. A. Kendall, M. Klemm, R. Kobayashi, V. Konkov,
      S. Krishnamoorthy, M. Krishnan, Z. Lin, R. D. Lins, R. J. Littlefield,
      A. J. Logsdail, K. Lopata, W. Ma, A. V. Marenich, J. Martin del Campo,
   D. Mejia-Rodriguez, J. E. Moore, J. M. Mullin, T. Nakajima, D. R. Nascimento,
    J. A. Nichols, P. J. Nichols, J. Nieplocha, A. Otero-de-la-Roza, B. Palmer,
    A. Panyala, T. Pirojsirikul, B. Peng, R. Peverati, J. Pittner, L. Pollack,
   R. M. Richard, P. Sadayappan, G. C. Schatz, W. A. Shelton, D. W. Silverstein,
   D. M. A. Smith, T. A. Soares, D. Song, M. Swart, H. L. Taylor, G. S. Thomas,
            V. Tipparaju, D. G. Truhlar, K. Tsemekhman, T. Van Voorhis,
      A. Vazquez-Mayagoitia, P. Verma, O. Villa, A. Vishnu, K. D. Vogiatzis,
        D. Wang, J. H. Weare, M. J. Williamson, T. L. Windus, K. Wolinski,
        A. T. Wong, Q. Wu, C. Yang, Q. Yu, M. Zacharias, Z. Zhang, Y. Zhao,
                                and R. J. Harrison
                        "NWChem: Past, present, and future
                         J. Chem. Phys. 152, 184102 (2020)
                               doi:10.1063/5.0004997

                                      AUTHORS
                                      -------
  E. Apra, E. J. Bylaska, N. Govind, K. Kowalski, M. Valiev, D. Mejia-Rodriguez,
       A. Kunitsa, N. P. Bauman, A. Panyala, W. A. de Jong, T. P. Straatsma,
        H. J. J. van Dam, D. Wang, T. L. Windus, J. Hammond, J. Autschbach,
    K. Bhaskaran-Nair, J. Brabec, K. Lopata, S. A. Fischer, S. Krishnamoorthy,
     M. Jacquelin, W. Ma, M. Klemm, O. Villa, Y. Chen, V. Anisimov, F. Aquino,
    S. Hirata, M. T. Hackler, Eric Hermes, L. Jensen, J. E. Moore, J. C. Becca,
      V. Konjkov, T. Risthaus, M. Malagoli, A. Marenich, A. Otero-de-la-Roza,
        J. Mullin, P. Nichols, R. Peverati, J. Pittner, Y. Zhao, P.-D. Fan,
        A. Fonari, M. J. Williamson, R. J. Harrison, J. R. Rehr, M. Dupuis,
     D. Silverstein, D. M. A. Smith, J. Nieplocha, V. Tipparaju, M. Krishnan,
     B. E. Van Kuiken, A. Vazquez-Mayagoitia, M. Swart, Q. Wu, T. Van Voorhis,
     A. A. Auer, M. Nooijen, L. D. Crosby, E. Brown, G. Cisneros, G. I. Fann,
   H. Fruchtl, J. Garza, K. Hirao, R. A. Kendall, J. A. Nichols, K. Tsemekhman,
    K. Wolinski, J. Anchell, D. E. Bernholdt, P. Borowski, T. Clark, D. Clerc,
   H. Dachsel, M. J. O. Deegan, K. Dyall, D. Elwood, E. Glendening, M. Gutowski,
   A. C. Hess, J. Jaffe, B. G. Johnson, J. Ju, R. Kobayashi, R. Kutteh, Z. Lin,
   R. Littlefield, X. Long, B. Meng, T. Nakajima, S. Niu, L. Pollack, M. Rosing,
   K. Glaesemann, G. Sandrone, M. Stave, H. Taylor, G. Thomas, J. H. van Lenthe,
                               A. T. Wong, Z. Zhang.

 Total times  cpu:      481.9s     wall:      484.8s
