 argument  1 = input.nw
  NWChem w/ OpenMP: maximum threads =    1



============================== echo of input deck ==============================
 echo
 start Li2
 title "Li2"

 memory total 24 gb

 geometry units bohr
 symmetry c1
        Li  0.00000000  0.00000000  0.00000000
        Li  0.00000000  4.1  0.00000000
 end

 basis
   * library cc-pVTZ
 end

 mcscf
   active  4
   actelec 6
   multiplicity 1
   maxiter 40
   vectors input Li2.mos
   vectors output Li2.mos
 end

 task mcscf

 scf
   vectors input Li2.mos
   vectors output Li2-4.1.mos
   noscf
 end

 tce
   2eorb
   2emet 13
   ccsd
   maxiter 300
   lshift 0.3
 end

# set tce:print_integrals T
# set tce:qorb 10
# set tce:qela 1
# set tce:qelb 1

 set tce:qducc T
 set tce:nactv 1
 set tce:nonhf T
 set tce:ducc_model 6

 set tce:printtol 0.02

 task tce
================================================================================


                                         
                                         


             Northwest Computational Chemistry Package (NWChem) 7.0.1
             --------------------------------------------------------


                    Environmental Molecular Sciences Laboratory
                       Pacific Northwest National Laboratory
                                Richland, WA 99352

                              Copyright (c) 1994-2020
                       Pacific Northwest National Laboratory
                            Battelle Memorial Institute

             NWChem is an open-source computational chemistry package
                        distributed under the terms of the
                      Educational Community License (ECL) 2.0
             A copy of the license is included with this distribution
                              in the LICENSE.TXT file

                                  ACKNOWLEDGMENT
                                  --------------

            This software and its documentation were developed at the
            EMSL at Pacific Northwest National Laboratory, a multiprogram
            national laboratory, operated for the U.S. Department of Energy
            by Battelle under Contract Number DE-AC05-76RL01830. Support
            for this work was provided by the Department of Energy Office
            of Biological and Environmental Research, Office of Basic
            Energy Sciences, and the Office of Advanced Scientific Computing.


           Job information
           ---------------

    hostname        = WE46210
    program         = /home/baum612/code/nwchem/bin/LINUX64/nwchem
    date            = Tue Nov 14 22:22:06 2023

    compiled        = Mon_Nov_06_10:06:57_2023
    source          = /home/baum612/code/nwchem
    nwchem branch   = 7.0.0
    nwchem revision = nwchem_on_git-4191-g39d87d64de
    ga revision     = 5.8.1
    use scalapack   = F
    input           = input.nw
    prefix          = Li2.
    data base       = ./Li2.db
    status          = startup
    nproc           =        1
    time left       =     -1s



           Memory information
           ------------------

    heap     =  805306362 doubles =   6144.0 Mbytes
    stack    =  805306367 doubles =   6144.0 Mbytes
    global   = 1610612736 doubles =  12288.0 Mbytes (distinct from heap & stack)
    total    = 3221225465 doubles =  24576.0 Mbytes
    verify   = yes
    hardfail = no 


           Directory information
           ---------------------

  0 permanent = .
  0 scratch   = .




                                NWChem Input Module
                                -------------------


                                        Li2
                                        ---
 Turning off AUTOSYM since
 SYMMETRY directive was detected!


          ------
          auto-z
          ------
  no constraints, skipping    0.0000000000000000     
  no constraints, skipping    0.0000000000000000     


                             Geometry "geometry" -> ""
                             -------------------------

 Output coordinates in a.u. (scale by  1.000000000 to convert to a.u.)

  No.       Tag          Charge          X              Y              Z
 ---- ---------------- ---------- -------------- -------------- --------------
    1 Li                   3.0000     0.00000000    -2.05000000     0.00000000
    2 Li                   3.0000     0.00000000     2.05000000     0.00000000

      Atomic Mass 
      ----------- 

      Li                 7.016000


 Effective nuclear repulsion energy (a.u.)       2.1951219512

            Nuclear Dipole moment (a.u.) 
            ----------------------------
        X                 Y               Z
 ---------------- ---------------- ----------------
     0.0000000000     0.0000000000     0.0000000000



                                Z-matrix (autoz)
                                -------- 

 Units are Angstrom for bonds and degrees for angles

      Type          Name      I     J     K     L     M      Value
      ----------- --------  ----- ----- ----- ----- ----- ----------
    1 Stretch                  1     2                       2.16963


            XYZ format geometry
            -------------------
     2
 geometry
 Li                    0.00000000    -1.08481336     0.00000000
 Li                    0.00000000     1.08481336     0.00000000

 ==============================================================================
                                internuclear distances
 ------------------------------------------------------------------------------
       center one      |      center two      | atomic units |       a.u.
 ------------------------------------------------------------------------------
    2 Li               |   1 Li               |     4.10000  |     4.10000
 ------------------------------------------------------------------------------
                         number of included internuclear distances:          1
 ==============================================================================





 Summary of "ao basis" -> "" (cartesian)
 ------------------------------------------------------------------------------
       Tag                 Description            Shells   Functions and Types
 ---------------- ------------------------------  ------  ---------------------
 *                          cc-pVTZ                   on all atoms 


                      Basis "ao basis" -> "ao basis" (cartesian)
                      -----
  Li (Lithium)
  ------------
            Exponent  Coefficients 
       -------------- ---------------------------------------------------------
  1 S  5.98800000E+03  0.000133
  1 S  8.98900000E+02  0.001025
  1 S  2.05900000E+02  0.005272
  1 S  5.92400000E+01  0.020929
  1 S  1.98700000E+01  0.066340
  1 S  7.40600000E+00  0.165775
  1 S  2.93000000E+00  0.315038
  1 S  1.18900000E+00  0.393523
  1 S  4.79800000E-01  0.190870

  2 S  5.98800000E+03 -0.000021
  2 S  8.98900000E+02 -0.000161
  2 S  2.05900000E+02 -0.000820
  2 S  5.92400000E+01 -0.003326
  2 S  1.98700000E+01 -0.010519
  2 S  7.40600000E+00 -0.028097
  2 S  2.93000000E+00 -0.055936
  2 S  1.18900000E+00 -0.099237
  2 S  4.79800000E-01 -0.112189

  3 S  7.50900000E-02  1.000000

  4 S  2.83200000E-02  1.000000

  5 P  3.26600000E+00  0.008630
  5 P  6.51100000E-01  0.047538
  5 P  1.69600000E-01  0.209772

  6 P  5.57800000E-02  1.000000

  7 P  2.05000000E-02  1.000000

  8 D  1.87400000E-01  1.000000

  9 D  8.01000000E-02  1.000000

 10 F  1.82900000E-01  1.000000



 Summary of "ao basis" -> "ao basis" (cartesian)
 ------------------------------------------------------------------------------
       Tag                 Description            Shells   Functions and Types
 ---------------- ------------------------------  ------  ---------------------
 Li                         cc-pVTZ                 10       35   4s3p2d1f



                            NWChem Direct MCSCF Module
                            --------------------------


                                        Li2


     -----------------------------------
       Basis functions:             70
       Inactive shells:              0
       Active shells:                4
       Active electrons:             6
       Symmetry:                    a       
       Multiplicity:                 1
       Orbital rotations:          264
     -----------------------------------

     -----------------------------------
       E2 extrapolation:             F
       Conjugacy:                    T
       Micro CI relax:               T
       Canonical orbitals:           T
       Maximum iterations:          40
       Converge threshold:    1.00E-04
       Conjugacy resets:            20
       Initial levelshift:        0.10
     -----------------------------------

 Loading old vectors from job with title :

Li2


   input molecular orbitals = ./Li2.mos
  output molecular orbtials = ./Li2.mos

       No. of determinants:            16


  Starting Orbital Energies
    -2.478196    -2.474959    -0.198399    -0.009434     0.018206     0.018206
     0.039588     0.056498     0.056498     0.061126     0.091505     0.094353
     0.094353     0.126124     0.149691     0.160699     0.160699     0.206882
     0.206882     0.212333     0.266033     0.266033     0.284256     0.284256
     0.304993     0.345062     0.345062     0.354518     0.359094     0.359094
     0.372355     0.407681     0.412623     0.412623     0.513593     0.660069
     0.674815     0.674815     0.697481     0.697481     0.701159     0.701159
     0.761899     0.777850     0.777850     0.782702     0.782702     0.831862
     0.831862     0.874201     0.874201     0.900274     0.900274     0.906277
     0.949058     0.949058     0.976253     1.025067     1.025067     1.031681
     1.031681     1.134883     1.181962     1.402045     1.402045     1.414553
     1.667150     2.447588     6.407805     6.450631

  Orbital Symmetry Irreps
a    a    a    a    a    a    a    a    a    a    a    a    a    a    a   
a    a    a    a    a    a    a    a    a    a    a    a    a    a    a   
a    a    a    a    a    a    a    a    a    a    a    a    a    a    a   
a    a    a    a    a    a    a    a    a    a    a    a    a    a    a   
a    a    a    a    a    a    a    a    a    a   

 Integral file          = ./Li2.aoints.0
 Record size in doubles =  65536        No. of integs per rec  =  43688
 Max. records in memory =     99        Max. records in file   = 280061
 No. of bits per label  =      8        No. of bits per value  =     64


 #quartets = 2.216D+04 #integrals = 8.606D+05 #direct =  0.0% #cached =100.0%




          %%%%% MacroIteration   1 %%%%%


          Number of sigma calls:        5
                       o<<<<< (aa):             0.00
                       o<<<<< (bb):             0.00
                       o<<<<< (ab):             0.00
                       o<<<<< (total)           0.00
                       o<<<<< (aa) ff           0.00
                       o<<<<< (aa) gop          0.00
                       o<<<<< (aa) dot          0.00
                       o<<<<< (ab) str          0.00
                       o<<<<< (ab) gath         0.00
                       o<<<<< (ab) dotab        0.00
                       o<<<<< (ab) scat         0.00
                       o<<<<< (ab) sync         0.00
                       o<<<<< Density           0.00
                       o<<<<< Density one       0.00
                       o<<<<< Density two       0.00
                       o<<<<< Density ab        0.00
                       o<<<<< Spin adapt        0.00
                       o<<<<< Symm adapt        0.00

                       o<<<<< (ab) max sync:      0.00

           >>>| Valence CI:            -17.058645303968
           >>>| MCSCF energy:          -14.863523352749
           >>>| Gradient norm:          0.144894156D-01
     --- Warning:   25 Hessian diagonals < 0.05 ---

                              ----- Line search ------

        step       energy         lsg     num-lsg   num-lsh   lsrat    time
      ------- ---------------- --------- --------- --------- ------- --------
       0.0000     -14.86352335 -1.56D-05  0.00D+00  0.00D+00 0.0D+00      1.0

          Number of sigma calls:        5
                       o<<<<< (aa):             0.00
                       o<<<<< (bb):             0.00
                       o<<<<< (ab):             0.00
                       o<<<<< (total)           0.00
                       o<<<<< (aa) ff           0.00
                       o<<<<< (aa) gop          0.00
                       o<<<<< (aa) dot          0.00
                       o<<<<< (ab) str          0.00
                       o<<<<< (ab) gath         0.00
                       o<<<<< (ab) dotab        0.00
                       o<<<<< (ab) scat         0.00
                       o<<<<< (ab) sync         0.00
                       o<<<<< Density           0.00
                       o<<<<< Density one       0.00
                       o<<<<< Density two       0.00
                       o<<<<< Density ab        0.00
                       o<<<<< Spin adapt        0.00
                       o<<<<< Symm adapt        0.00

                       o<<<<< (ab) max sync:      0.00
       1.0000     -14.86353139 -4.35D-07 -4.35D-07  1.52D-05 2.8D-02      1.1
     --- Orbitals canonicalized ---



          %%%%% MacroIteration   2 %%%%%


          Number of sigma calls:        5
                       o<<<<< (aa):             0.00
                       o<<<<< (bb):             0.00
                       o<<<<< (ab):             0.00
                       o<<<<< (total)           0.00
                       o<<<<< (aa) ff           0.00
                       o<<<<< (aa) gop          0.00
                       o<<<<< (aa) dot          0.00
                       o<<<<< (ab) str          0.00
                       o<<<<< (ab) gath         0.00
                       o<<<<< (ab) dotab        0.00
                       o<<<<< (ab) scat         0.00
                       o<<<<< (ab) sync         0.00
                       o<<<<< Density           0.00
                       o<<<<< Density one       0.00
                       o<<<<< Density two       0.00
                       o<<<<< Density ab        0.00
                       o<<<<< Spin adapt        0.00
                       o<<<<< Symm adapt        0.00

                       o<<<<< (ab) max sync:      0.00

           >>>| Valence CI:            -17.058653342701
           >>>| MCSCF energy:          -14.863531391482
           >>>| Gradient norm:          0.412227828D-03
     --- Warning:   36 Hessian diagonals < 0.05 ---
     --- Warning: Precondition failed to converge:Residue: current= 0.4D-01 required= 0.3D-01---
     --- Conjugacy reset ---

                              ----- Line search ------

        step       energy         lsg     num-lsg   num-lsh   lsrat    time
      ------- ---------------- --------- --------- --------- ------- --------
       0.0000     -14.86353139 -1.08D-06  0.00D+00  0.00D+00 0.0D+00      1.5

          Number of sigma calls:        5
                       o<<<<< (aa):             0.00
                       o<<<<< (bb):             0.00
                       o<<<<< (ab):             0.00
                       o<<<<< (total)           0.00
                       o<<<<< (aa) ff           0.00
                       o<<<<< (aa) gop          0.00
                       o<<<<< (aa) dot          0.00
                       o<<<<< (ab) str          0.00
                       o<<<<< (ab) gath         0.00
                       o<<<<< (ab) dotab        0.00
                       o<<<<< (ab) scat         0.00
                       o<<<<< (ab) sync         0.00
                       o<<<<< Density           0.00
                       o<<<<< Density one       0.00
                       o<<<<< Density two       0.00
                       o<<<<< Density ab        0.00
                       o<<<<< Spin adapt        0.00
                       o<<<<< Symm adapt        0.00

                       o<<<<< (ab) max sync:      0.00
       1.0000     -14.86353197 -8.09D-08 -8.01D-08  9.98D-07 7.5D-02      1.6



          %%%%% MacroIteration   3 %%%%%


          Number of sigma calls:        1
                       o<<<<< (aa):             0.00
                       o<<<<< (bb):             0.00
                       o<<<<< (ab):             0.00
                       o<<<<< (total)           0.00
                       o<<<<< (aa) ff           0.00
                       o<<<<< (aa) gop          0.00
                       o<<<<< (aa) dot          0.00
                       o<<<<< (ab) str          0.00
                       o<<<<< (ab) gath         0.00
                       o<<<<< (ab) dotab        0.00
                       o<<<<< (ab) scat         0.00
                       o<<<<< (ab) sync         0.00
                       o<<<<< Density           0.00
                       o<<<<< Density one       0.00
                       o<<<<< Density two       0.00
                       o<<<<< Density ab        0.00
                       o<<<<< Spin adapt        0.00
                       o<<<<< Symm adapt        0.00

                       o<<<<< (ab) max sync:      0.00

           >>>| Valence CI:            -17.058653921942
           >>>| MCSCF energy:          -14.863531970722
           >>>| Gradient norm:          0.724293419D-04




     ==============================
            MCSCF Converged
     ==============================



          Canonical Eigenvalues

              1      
    1   -2.4584
    2   -2.4558
    3   -0.1942
    4   -0.0106
    5    0.0236
    6    0.0236
    7    0.0407
    8    0.0446
    9    0.0572
   10    0.0572
   11    0.0955
   12    0.1010
   13    0.1010
   14    0.1291
   15    0.1495
   16    0.1644
   17    0.1644
   18    0.1980
   19    0.2144
   20    0.2144
   21    0.2691
   22    0.2691
   23    0.2880
   24    0.2880
   25    0.3122
   26    0.3548
   27    0.3559
   28    0.3559
   29    0.3629
   30    0.3629
   31    0.3769
   32    0.4128
   33    0.4154
   34    0.4154
   35    0.5122
   36    0.6555
   37    0.6904
   38    0.6904
   39    0.7055
   40    0.7055
   41    0.7140
   42    0.7140
   43    0.7719
   44    0.7854
   45    0.7854
   46    0.7858
   47    0.7858
   48    0.8383
   49    0.8383
   50    0.8732
   51    0.8732
   52    0.9139
   53    0.9146
   54    0.9146
   55    0.9614
   56    0.9614
   57    0.9795
   58    1.0270
   59    1.0270
   60    1.0294
   61    1.0294
   62    1.1304
   63    1.1952
   64    1.3761
   65    1.3761
   66    1.4233
   67    1.6591
   68    2.4414
   69    6.4166
   70    6.4637


          Converged CI vector

   Index           Coefficient          Config. Occupation
         1         -0.98374521          1  2  3  1  2  3
         6          0.17955503          1  2  4  1  2  4

          Number of sigma calls:        1
                       o<<<<< (aa):             0.00
                       o<<<<< (bb):             0.00
                       o<<<<< (ab):             0.00
                       o<<<<< (total)           0.00
                       o<<<<< (aa) ff           0.00
                       o<<<<< (aa) gop          0.00
                       o<<<<< (aa) dot          0.00
                       o<<<<< (ab) str          0.00
                       o<<<<< (ab) gath         0.00
                       o<<<<< (ab) dotab        0.00
                       o<<<<< (ab) scat         0.00
                       o<<<<< (ab) sync         0.00
                       o<<<<< Density           0.00
                       o<<<<< Density one       0.00
                       o<<<<< Density two       0.00
                       o<<<<< Density ab        0.00
                       o<<<<< Spin adapt        0.00
                       o<<<<< Symm adapt        0.00

                       o<<<<< (ab) max sync:      0.00



          Natural orbital occupation numbers

              1      
    1    2.0000
    2    2.0000
    3    1.9355
    4    0.0645


          Number of sigma calls:        5
                       o<<<<< (aa):             0.00
                       o<<<<< (bb):             0.00
                       o<<<<< (ab):             0.00
                       o<<<<< (total)           0.00
                       o<<<<< (aa) ff           0.00
                       o<<<<< (aa) gop          0.00
                       o<<<<< (aa) dot          0.00
                       o<<<<< (ab) str          0.00
                       o<<<<< (ab) gath         0.00
                       o<<<<< (ab) dotab        0.00
                       o<<<<< (ab) scat         0.00
                       o<<<<< (ab) sync         0.00
                       o<<<<< Density           0.00
                       o<<<<< Density one       0.00
                       o<<<<< Density two       0.00
                       o<<<<< Density ab        0.00
                       o<<<<< Spin adapt        0.00
                       o<<<<< Symm adapt        0.00

                       o<<<<< (ab) max sync:      0.00


       Final MCSCF results 
       ------------------- 

       Total MCSCF energy =    -14.863531970722
            Gradient norm =      7.2D-05

    CPU time for solution =      1.5s
   Wall time for solution =      1.5s



                        Analysis of MCSCF natural orbitals
                        ----------------------------------

 Vector    1  Occ=1.999996D+00  E=-2.458381D+00  Symmetry=a
              MO Center=  9.0D-10,  4.0D-10,  1.3D-09, r^2= 1.3D+00
   Bfn.  Coefficient  Atom+Function         Bfn.  Coefficient  Atom+Function  
  ----- ------------  ---------------      ----- ------------  ---------------
     1      0.702911  1 Li s                 36      0.702911  2 Li s          

 Vector    2  Occ=1.999996D+00  E=-2.455795D+00  Symmetry=a
              MO Center=  6.8D-10, -4.0D-10,  1.0D-09, r^2= 1.3D+00
   Bfn.  Coefficient  Atom+Function         Bfn.  Coefficient  Atom+Function  
  ----- ------------  ---------------      ----- ------------  ---------------
     1      0.704180  1 Li s                 36     -0.704180  2 Li s          

 Vector    3  Occ=1.935518D+00  E=-1.942282D-01  Symmetry=a
              MO Center=  5.4D-07, -1.1D-13,  8.1D-07, r^2= 4.9D+00
   Bfn.  Coefficient  Atom+Function         Bfn.  Coefficient  Atom+Function  
  ----- ------------  ---------------      ----- ------------  ---------------
     3      0.359294  1 Li s                 38      0.359294  2 Li s          
     4      0.252669  1 Li s                 39      0.252669  2 Li s          
     2      0.227015  1 Li s                 37      0.227015  2 Li s          

 Vector    4  Occ=6.449012D-02  E=-1.055384D-02  Symmetry=a
              MO Center= -3.4D-09,  2.6D-13, -5.1D-09, r^2= 6.3D+00
   Bfn.  Coefficient  Atom+Function         Bfn.  Coefficient  Atom+Function  
  ----- ------------  ---------------      ----- ------------  ---------------
     3      0.743724  1 Li s                 38     -0.743724  2 Li s          
     4      0.452467  1 Li s                 39     -0.452467  2 Li s          
     2      0.274761  1 Li s                 37     -0.274761  2 Li s          

 Vector    5  Occ=0.000000D+00  E= 2.357937D-02  Symmetry=a
              MO Center= -8.7D-05, -8.8D-14, -1.3D-04, r^2= 1.6D+01
   Bfn.  Coefficient  Atom+Function         Bfn.  Coefficient  Atom+Function  
  ----- ------------  ---------------      ----- ------------  ---------------
    13      0.407547  1 Li pz                48      0.407547  2 Li pz         
    11      0.273915  1 Li px                46      0.273915  2 Li px         

 Vector    6  Occ=0.000000D+00  E= 2.357937D-02  Symmetry=a
              MO Center= -1.2D-05, -3.9D-14, -1.7D-05, r^2= 1.6D+01
   Bfn.  Coefficient  Atom+Function         Bfn.  Coefficient  Atom+Function  
  ----- ------------  ---------------      ----- ------------  ---------------
    11      0.407547  1 Li px                46      0.407547  2 Li px         
    13     -0.273915  1 Li pz                48     -0.273915  2 Li pz         

 Vector    7  Occ=0.000000D+00  E= 4.074989D-02  Symmetry=a
              MO Center=  7.3D-06, -1.4D-11,  1.1D-05, r^2= 2.5D+01
   Bfn.  Coefficient  Atom+Function         Bfn.  Coefficient  Atom+Function  
  ----- ------------  ---------------      ----- ------------  ---------------
    12      1.233556  1 Li py                47     -1.233556  2 Li py         
     4     -0.889647  1 Li s                 39     -0.889647  2 Li s          
     3      0.412122  1 Li s                 38      0.412122  2 Li s          
     9     -0.216337  1 Li py                44      0.216337  2 Li py         

 Vector    8  Occ=0.000000D+00  E= 4.464469D-02  Symmetry=a
              MO Center= -1.6D-04,  1.5D-11, -2.3D-04, r^2= 3.9D+01
   Bfn.  Coefficient  Atom+Function         Bfn.  Coefficient  Atom+Function  
  ----- ------------  ---------------      ----- ------------  ---------------
     4      7.073080  1 Li s                 39     -7.073080  2 Li s          
    12      2.402043  1 Li py                47      2.402043  2 Li py         
     3     -0.699523  1 Li s                 38      0.699523  2 Li s          
    20     -0.209025  1 Li dxx               25     -0.209025  1 Li dzz        
    55      0.209025  2 Li dxx               60      0.209025  2 Li dzz        

 Vector    9  Occ=0.000000D+00  E= 5.722753D-02  Symmetry=a
              MO Center= -4.1D-06,  1.4D-13, -6.0D-06, r^2= 2.8D+01
   Bfn.  Coefficient  Atom+Function         Bfn.  Coefficient  Atom+Function  
  ----- ------------  ---------------      ----- ------------  ---------------
    11      1.731195  1 Li px                46     -1.731195  2 Li px         
    13     -1.164111  1 Li pz                48      1.164111  2 Li pz         
     8     -0.425413  1 Li px                43      0.425413  2 Li px         
    10      0.286062  1 Li pz                45     -0.286062  2 Li pz         

 Vector   10  Occ=0.000000D+00  E= 5.722753D-02  Symmetry=a
              MO Center=  1.2D-04,  2.1D-13,  1.8D-04, r^2= 2.8D+01
   Bfn.  Coefficient  Atom+Function         Bfn.  Coefficient  Atom+Function  
  ----- ------------  ---------------      ----- ------------  ---------------
    13      1.731195  1 Li pz                48     -1.731195  2 Li pz         
    11      1.164111  1 Li px                46     -1.164111  2 Li px         
    10     -0.425413  1 Li pz                45      0.425413  2 Li pz         
     8     -0.286062  1 Li px                43      0.286062  2 Li px         

 Vector   11  Occ=0.000000D+00  E= 9.549153D-02  Symmetry=a
              MO Center= -2.8D-04, -2.2D-12, -4.1D-04, r^2= 1.8D+01
   Bfn.  Coefficient  Atom+Function         Bfn.  Coefficient  Atom+Function  
  ----- ------------  ---------------      ----- ------------  ---------------
     4      1.168119  1 Li s                 39      1.168119  2 Li s          
    12      1.112877  1 Li py                47     -1.112877  2 Li py         
     3     -1.035147  1 Li s                 38     -1.035147  2 Li s          
    20     -0.325884  1 Li dxx               25     -0.325884  1 Li dzz        
    55     -0.325884  2 Li dxx               60     -0.325884  2 Li dzz        

 Vector   12  Occ=0.000000D+00  E= 1.009738D-01  Symmetry=a
              MO Center= -7.3D-06,  4.1D-14, -1.1D-05, r^2= 1.7D+01
   Bfn.  Coefficient  Atom+Function         Bfn.  Coefficient  Atom+Function  
  ----- ------------  ---------------      ----- ------------  ---------------
     8      0.827933  1 Li px                43      0.827933  2 Li px         
    11     -0.595375  1 Li px                46     -0.595375  2 Li px         
    10     -0.556474  1 Li pz                45     -0.556474  2 Li pz         
    13      0.400166  1 Li pz                48      0.400166  2 Li pz         

 Vector   13  Occ=0.000000D+00  E= 1.009738D-01  Symmetry=a
              MO Center=  3.0D-04,  1.1D-13,  4.5D-04, r^2= 1.7D+01
   Bfn.  Coefficient  Atom+Function         Bfn.  Coefficient  Atom+Function  
  ----- ------------  ---------------      ----- ------------  ---------------
    10      0.827933  1 Li pz                45      0.827933  2 Li pz         
    13     -0.595375  1 Li pz                48     -0.595375  2 Li pz         
     8      0.556474  1 Li px                43      0.556474  2 Li px         
    11     -0.400166  1 Li px                46     -0.400166  2 Li px         

 Vector   14  Occ=0.000000D+00  E= 1.290623D-01  Symmetry=a
              MO Center=  4.2D-06, -4.2D-12,  6.2D-06, r^2= 1.5D+01
   Bfn.  Coefficient  Atom+Function         Bfn.  Coefficient  Atom+Function  
  ----- ------------  ---------------      ----- ------------  ---------------
     9      1.154827  1 Li py                44     -1.154827  2 Li py         
     4      1.085053  1 Li s                 39      1.085053  2 Li s          
    12     -0.904231  1 Li py                47      0.904231  2 Li py         
     3     -0.816905  1 Li s                 38     -0.816905  2 Li s          
    23     -0.282294  1 Li dyy               58     -0.282294  2 Li dyy        


 Wrote Lagrangian and 1- and 2-particle density matrices to ./Li2.mcpdm


     Multipole analysis of the density
     ---------------------------------

     L   x y z        total        nuclear
     -   - - -        -----        -------
     0   0 0 0     -0.000000      6.000000

     1   1 0 0     -0.000002      0.000000
     1   0 1 0      0.000000      0.000000
     1   0 0 1     -0.000003      0.000000

     2   2 0 0    -11.607985      0.000000
     2   1 1 0     -0.000000      0.000000
     2   1 0 1     -0.000000      0.000000
     2   0 2 0     -5.310322     25.215000
     2   0 1 1      0.000000      0.000000
     2   0 0 2    -11.607985      0.000000


  Mulliken analysis of the total density
  --------------------------------------

    Atom       Charge   Shell Charges
 -----------   ------   -------------------------------------------------------
    1 Li   3     3.00   1.99 -0.02  0.57  0.44  0.03  0.03  0.00 -0.01 -0.03 -0.00
    2 Li   3     3.00   1.99 -0.02  0.57  0.44  0.03  0.03  0.00 -0.01 -0.03 -0.00

    Mulliken analysis of the active space density
    ---------------------------------------------

    Atom       Charge   Shell Charges
 -----------   ------   -------------------------------------------------------
    1 Li   3     3.00   1.99 -0.02  0.57  0.44  0.03  0.03  0.00 -0.01 -0.03 -0.00
    2 Li   3     3.00   1.99 -0.02  0.57  0.44  0.03  0.03  0.00 -0.01 -0.03 -0.00

 Parallel integral file used      20 records with       0 large values


 Task  times  cpu:        1.5s     wall:        1.5s


                                NWChem Input Module
                                -------------------


                                 NWChem SCF Module
                                 -----------------


                                        Li2



  ao basis        = "ao basis"
  functions       =    70
  atoms           =     2
  closed shells   =     3
  open shells     =     0
  charge          =   0.00
  wavefunction    = RHF 
  input vectors   = ./Li2.mos
  output vectors  = ./Li2-4.1.mos
  use symmetry    = F
  symmetry adapt  = F


 Summary of "ao basis" -> "ao basis" (cartesian)
 ------------------------------------------------------------------------------
       Tag                 Description            Shells   Functions and Types
 ---------------- ------------------------------  ------  ---------------------
 Li                         cc-pVTZ                 10       35   4s3p2d1f



 Forming initial guess at       1.5s


 Loading old vectors from job with title :

Li2


 Starting SCF solution at       1.5s



 ----------------------------------------------
         Quadratically convergent ROHF

 Convergence threshold     :          1.000E-04
 Maximum no. of iterations :           30
 Final Fock-matrix accuracy:          1.000E-07
 ----------------------------------------------


 Integral file          = ./Li2.aoints.0
 Record size in doubles =  65536        No. of integs per rec  =  43688
 Max. records in memory =     99        Max. records in file   = 280112
 No. of bits per label  =      8        No. of bits per value  =     64


 #quartets = 2.216D+04 #integrals = 8.606D+05 #direct =  0.0% #cached =100.0%



       Final RHF  results 
       ------------------ 

         Total SCF energy =    -14.855754847872
      One-electron energy =    -23.893450098713
      Two-electron energy =      6.842573299622
 Nuclear repulsion energy =      2.195121951220

        Time for solution =      0.1s


             Final eigenvalues
             -----------------

              1      
    1   -2.4584
    2   -2.4558
    3   -0.1942
    4   -0.0106
    5    0.0236
    6    0.0236
    7    0.0407
    8    0.0446
    9    0.0572
   10    0.0572
   11    0.0955
   12    0.1010
   13    0.1010

                       ROHF Final Molecular Orbital Analysis
                       -------------------------------------

 Vector    2  Occ=2.000000D+00  E=-2.455795D+00
              MO Center=  6.8D-10, -4.0D-10,  1.0D-09, r^2= 1.3D+00
   Bfn.  Coefficient  Atom+Function         Bfn.  Coefficient  Atom+Function  
  ----- ------------  ---------------      ----- ------------  ---------------
     1      0.704180  1 Li s                 36     -0.704180  2 Li s          

 Vector    3  Occ=2.000000D+00  E=-1.942282D-01
              MO Center=  5.4D-07, -1.1D-13,  8.1D-07, r^2= 4.9D+00
   Bfn.  Coefficient  Atom+Function         Bfn.  Coefficient  Atom+Function  
  ----- ------------  ---------------      ----- ------------  ---------------
     3      0.359294  1 Li s                 38      0.359294  2 Li s          
     4      0.252669  1 Li s                 39      0.252669  2 Li s          
     2      0.227015  1 Li s                 37      0.227015  2 Li s          

 Vector    4  Occ=0.000000D+00  E=-1.055384D-02
              MO Center= -3.4D-09,  2.6D-13, -5.1D-09, r^2= 6.3D+00
   Bfn.  Coefficient  Atom+Function         Bfn.  Coefficient  Atom+Function  
  ----- ------------  ---------------      ----- ------------  ---------------
     3      0.743724  1 Li s                 38     -0.743724  2 Li s          
     4      0.452467  1 Li s                 39     -0.452467  2 Li s          
     2      0.274761  1 Li s                 37     -0.274761  2 Li s          

 Vector    5  Occ=0.000000D+00  E= 2.357937D-02
              MO Center= -8.7D-05, -8.8D-14, -1.3D-04, r^2= 1.6D+01
   Bfn.  Coefficient  Atom+Function         Bfn.  Coefficient  Atom+Function  
  ----- ------------  ---------------      ----- ------------  ---------------
    13      0.407547  1 Li pz                48      0.407547  2 Li pz         
    11      0.273915  1 Li px                46      0.273915  2 Li px         

 Vector    6  Occ=0.000000D+00  E= 2.357937D-02
              MO Center= -1.2D-05, -3.9D-14, -1.7D-05, r^2= 1.6D+01
   Bfn.  Coefficient  Atom+Function         Bfn.  Coefficient  Atom+Function  
  ----- ------------  ---------------      ----- ------------  ---------------
    11      0.407547  1 Li px                46      0.407547  2 Li px         
    13     -0.273915  1 Li pz                48     -0.273915  2 Li pz         

 Vector    7  Occ=0.000000D+00  E= 4.074989D-02
              MO Center=  7.3D-06, -1.4D-11,  1.1D-05, r^2= 2.5D+01
   Bfn.  Coefficient  Atom+Function         Bfn.  Coefficient  Atom+Function  
  ----- ------------  ---------------      ----- ------------  ---------------
    12      1.233556  1 Li py                47     -1.233556  2 Li py         
     4     -0.889647  1 Li s                 39     -0.889647  2 Li s          
     3      0.412122  1 Li s                 38      0.412122  2 Li s          
     9     -0.216337  1 Li py                44      0.216337  2 Li py         

 Vector    8  Occ=0.000000D+00  E= 4.464469D-02
              MO Center= -1.6D-04,  1.5D-11, -2.3D-04, r^2= 3.9D+01
   Bfn.  Coefficient  Atom+Function         Bfn.  Coefficient  Atom+Function  
  ----- ------------  ---------------      ----- ------------  ---------------
     4      7.073080  1 Li s                 39     -7.073080  2 Li s          
    12      2.402043  1 Li py                47      2.402043  2 Li py         
     3     -0.699523  1 Li s                 38      0.699523  2 Li s          
    20     -0.209025  1 Li dxx               25     -0.209025  1 Li dzz        
    55      0.209025  2 Li dxx               60      0.209025  2 Li dzz        

 Vector    9  Occ=0.000000D+00  E= 5.722753D-02
              MO Center= -4.1D-06,  1.4D-13, -6.0D-06, r^2= 2.8D+01
   Bfn.  Coefficient  Atom+Function         Bfn.  Coefficient  Atom+Function  
  ----- ------------  ---------------      ----- ------------  ---------------
    11      1.731195  1 Li px                46     -1.731195  2 Li px         
    13     -1.164111  1 Li pz                48      1.164111  2 Li pz         
     8     -0.425413  1 Li px                43      0.425413  2 Li px         
    10      0.286062  1 Li pz                45     -0.286062  2 Li pz         

 Vector   10  Occ=0.000000D+00  E= 5.722753D-02
              MO Center=  1.2D-04,  2.1D-13,  1.8D-04, r^2= 2.8D+01
   Bfn.  Coefficient  Atom+Function         Bfn.  Coefficient  Atom+Function  
  ----- ------------  ---------------      ----- ------------  ---------------
    13      1.731195  1 Li pz                48     -1.731195  2 Li pz         
    11      1.164111  1 Li px                46     -1.164111  2 Li px         
    10     -0.425413  1 Li pz                45      0.425413  2 Li pz         
     8     -0.286062  1 Li px                43      0.286062  2 Li px         

 Vector   11  Occ=0.000000D+00  E= 9.549153D-02
              MO Center= -2.8D-04, -2.2D-12, -4.1D-04, r^2= 1.8D+01
   Bfn.  Coefficient  Atom+Function         Bfn.  Coefficient  Atom+Function  
  ----- ------------  ---------------      ----- ------------  ---------------
     4      1.168119  1 Li s                 39      1.168119  2 Li s          
    12      1.112877  1 Li py                47     -1.112877  2 Li py         
     3     -1.035147  1 Li s                 38     -1.035147  2 Li s          
    20     -0.325884  1 Li dxx               25     -0.325884  1 Li dzz        
    55     -0.325884  2 Li dxx               60     -0.325884  2 Li dzz        

 Vector   12  Occ=0.000000D+00  E= 1.009738D-01
              MO Center= -7.3D-06,  3.9D-14, -1.1D-05, r^2= 1.7D+01
   Bfn.  Coefficient  Atom+Function         Bfn.  Coefficient  Atom+Function  
  ----- ------------  ---------------      ----- ------------  ---------------
     8      0.827933  1 Li px                43      0.827933  2 Li px         
    11     -0.595375  1 Li px                46     -0.595375  2 Li px         
    10     -0.556474  1 Li pz                45     -0.556474  2 Li pz         
    13      0.400166  1 Li pz                48      0.400166  2 Li pz         

 Vector   13  Occ=0.000000D+00  E= 1.009738D-01
              MO Center=  3.0D-04,  1.1D-13,  4.5D-04, r^2= 1.7D+01
   Bfn.  Coefficient  Atom+Function         Bfn.  Coefficient  Atom+Function  
  ----- ------------  ---------------      ----- ------------  ---------------
    10      0.827933  1 Li pz                45      0.827933  2 Li pz         
    13     -0.595375  1 Li pz                48     -0.595375  2 Li pz         
     8      0.556474  1 Li px                43      0.556474  2 Li px         
    11     -0.400166  1 Li px                46     -0.400166  2 Li px         

 Vector   14  Occ=0.000000D+00  E= 1.290623D-01
              MO Center=  4.2D-06, -4.2D-12,  6.2D-06, r^2= 1.5D+01
   Bfn.  Coefficient  Atom+Function         Bfn.  Coefficient  Atom+Function  
  ----- ------------  ---------------      ----- ------------  ---------------
     9      1.154827  1 Li py                44     -1.154827  2 Li py         
     4      1.085053  1 Li s                 39      1.085053  2 Li s          
    12     -0.904231  1 Li py                47      0.904231  2 Li py         
     3     -0.816905  1 Li s                 38     -0.816905  2 Li s          
    23     -0.282294  1 Li dyy               58     -0.282294  2 Li dyy        

 Vector   15  Occ=0.000000D+00  E= 1.495030D-01
              MO Center=  8.4D-06,  8.8D-12,  1.2D-05, r^2= 2.3D+01
   Bfn.  Coefficient  Atom+Function         Bfn.  Coefficient  Atom+Function  
  ----- ------------  ---------------      ----- ------------  ---------------
     4     17.745456  1 Li s                 39    -17.745456  2 Li s          
     9      9.224046  1 Li py                44      9.224046  2 Li py         
     3      6.988962  1 Li s                 38     -6.988962  2 Li s          
    12      2.625813  1 Li py                47      2.625813  2 Li py         
    23      2.265382  1 Li dyy               58     -2.265382  2 Li dyy        

 Vector   16  Occ=0.000000D+00  E= 1.644052D-01
              MO Center= -9.9D-06, -1.3D-13, -1.5D-05, r^2= 1.4D+01
   Bfn.  Coefficient  Atom+Function         Bfn.  Coefficient  Atom+Function  
  ----- ------------  ---------------      ----- ------------  ---------------
    10      1.628150  1 Li pz                45     -1.628150  2 Li pz         
    13     -1.306858  1 Li pz                48      1.306858  2 Li pz         
     8      1.089310  1 Li px                43     -1.089310  2 Li px         
    11     -0.874350  1 Li px                46      0.874350  2 Li px         
    28     -0.150730  1 Li fxxz              35     -0.150730  1 Li fzzz       

 Vector   17  Occ=0.000000D+00  E= 1.644052D-01
              MO Center= -1.8D-05, -9.1D-14, -2.7D-05, r^2= 1.4D+01
   Bfn.  Coefficient  Atom+Function         Bfn.  Coefficient  Atom+Function  
  ----- ------------  ---------------      ----- ------------  ---------------
     8      1.628150  1 Li px                43     -1.628150  2 Li px         
    11     -1.306858  1 Li px                46      1.306858  2 Li px         
    10     -1.089310  1 Li pz                45      1.089310  2 Li pz         
    13      0.874350  1 Li pz                48     -0.874350  2 Li pz         
    26     -0.150730  1 Li fxxx              31     -0.150730  1 Li fxzz       

 Vector   18  Occ=0.000000D+00  E= 1.979573D-01
              MO Center= -2.2D-05,  2.1D-12, -3.2D-05, r^2= 2.1D+01
   Bfn.  Coefficient  Atom+Function         Bfn.  Coefficient  Atom+Function  
  ----- ------------  ---------------      ----- ------------  ---------------
     3      9.092708  1 Li s                 38     -9.092708  2 Li s          
     9      6.820698  1 Li py                44      6.820698  2 Li py         
     4     -2.353183  1 Li s                 39      2.353183  2 Li s          
    23      2.306655  1 Li dyy               58     -2.306655  2 Li dyy        
    12     -1.309909  1 Li py                47     -1.309909  2 Li py         

 Vector   19  Occ=0.000000D+00  E= 2.143779D-01
              MO Center=  6.8D-06,  6.1D-14,  1.0D-05, r^2= 7.7D+00
   Bfn.  Coefficient  Atom+Function         Bfn.  Coefficient  Atom+Function  
  ----- ------------  ---------------      ----- ------------  ---------------
    22      1.155802  1 Li dxz               57      1.155802  2 Li dxz        
    16     -0.247935  1 Li dxz               51     -0.247935  2 Li dxz        

 Vector   20  Occ=0.000000D+00  E= 2.143779D-01
              MO Center=  6.8D-06,  5.4D-14,  1.0D-05, r^2= 7.7D+00
   Bfn.  Coefficient  Atom+Function         Bfn.  Coefficient  Atom+Function  
  ----- ------------  ---------------      ----- ------------  ---------------
    20      0.577901  1 Li dxx               25     -0.577901  1 Li dzz        
    55      0.577901  2 Li dxx               60     -0.577901  2 Li dzz        

 Vector   21  Occ=0.000000D+00  E= 2.690584D-01
              MO Center= -4.1D-06, -2.8D-13, -6.0D-06, r^2= 1.0D+01
   Bfn.  Coefficient  Atom+Function         Bfn.  Coefficient  Atom+Function  
  ----- ------------  ---------------      ----- ------------  ---------------
    21      1.223203  1 Li dxy               56     -1.223203  2 Li dxy        
    24     -0.822329  1 Li dyz               59      0.822329  2 Li dyz        
     8     -0.446128  1 Li px                43     -0.446128  2 Li px         
    10      0.299921  1 Li pz                45      0.299921  2 Li pz         
    15     -0.238142  1 Li dxy               50      0.238142  2 Li dxy        

 Vector   22  Occ=0.000000D+00  E= 2.690584D-01
              MO Center= -8.6D-06, -3.5D-13, -1.3D-05, r^2= 1.0D+01
   Bfn.  Coefficient  Atom+Function         Bfn.  Coefficient  Atom+Function  
  ----- ------------  ---------------      ----- ------------  ---------------
    24      1.223203  1 Li dyz               59     -1.223203  2 Li dyz        
    21      0.822329  1 Li dxy               56     -0.822329  2 Li dxy        
    10     -0.446128  1 Li pz                45     -0.446128  2 Li pz         
     8     -0.299921  1 Li px                43     -0.299921  2 Li px         
    18     -0.238142  1 Li dyz               53      0.238142  2 Li dyz        

 Vector   23  Occ=0.000000D+00  E= 2.880041D-01
              MO Center=  9.5D-06, -5.7D-14,  1.4D-05, r^2= 9.5D+00
   Bfn.  Coefficient  Atom+Function         Bfn.  Coefficient  Atom+Function  
  ----- ------------  ---------------      ----- ------------  ---------------
    22      2.043353  1 Li dxz               57     -2.043353  2 Li dxz        
    16     -0.336017  1 Li dxz               51      0.336017  2 Li dxz        

 Vector   24  Occ=0.000000D+00  E= 2.880041D-01
              MO Center=  9.5D-06, -5.4D-14,  1.4D-05, r^2= 9.5D+00
   Bfn.  Coefficient  Atom+Function         Bfn.  Coefficient  Atom+Function  
  ----- ------------  ---------------      ----- ------------  ---------------
    20      1.021676  1 Li dxx               25     -1.021676  1 Li dzz        
    55     -1.021676  2 Li dxx               60      1.021676  2 Li dzz        
    22     -0.277360  1 Li dxz               57      0.277360  2 Li dxz        
    14     -0.168008  1 Li dxx               19      0.168008  1 Li dzz        
    49      0.168008  2 Li dxx               54     -0.168008  2 Li dzz        

 Vector   25  Occ=0.000000D+00  E= 3.121747D-01
              MO Center= -2.7D-05, -3.3D-12, -4.1D-05, r^2= 1.0D+01
   Bfn.  Coefficient  Atom+Function         Bfn.  Coefficient  Atom+Function  
  ----- ------------  ---------------      ----- ------------  ---------------
    12     -0.863894  1 Li py                47      0.863894  2 Li py         
     3      0.853906  1 Li s                 38      0.853906  2 Li s          
    23     -0.683827  1 Li dyy               58     -0.683827  2 Li dyy        
     9      0.551054  1 Li py                44     -0.551054  2 Li py         
    20      0.544049  1 Li dxx               25      0.544049  1 Li dzz        

 Vector   26  Occ=0.000000D+00  E= 3.547939D-01
              MO Center= -3.2D-05, -6.4D-11, -4.8D-05, r^2= 1.3D+01
   Bfn.  Coefficient  Atom+Function         Bfn.  Coefficient  Atom+Function  
  ----- ------------  ---------------      ----- ------------  ---------------
     3     15.152387  1 Li s                 38    -15.152387  2 Li s          
     9     13.414046  1 Li py                44     13.414046  2 Li py         
     4     12.754780  1 Li s                 39    -12.754780  2 Li s          
    23      5.116223  1 Li dyy               58     -5.116223  2 Li dyy        
    12      1.293521  1 Li py                47      1.293521  2 Li py         

 Vector   27  Occ=0.000000D+00  E= 3.558930D-01
              MO Center= -3.6D-05,  2.5D-12, -5.3D-05, r^2= 8.6D+00
   Bfn.  Coefficient  Atom+Function         Bfn.  Coefficient  Atom+Function  
  ----- ------------  ---------------      ----- ------------  ---------------
    10      1.068328  1 Li pz                45      1.068328  2 Li pz         
     8      0.718084  1 Li px                43      0.718084  2 Li px         
     7     -0.491840  1 Li pz                42     -0.491840  2 Li pz         
    28     -0.436891  1 Li fxxz              35     -0.436891  1 Li fzzz       
    63     -0.436891  2 Li fxxz              70     -0.436891  2 Li fzzz       

 Vector   28  Occ=0.000000D+00  E= 3.558930D-01
              MO Center= -8.7D-07,  4.6D-13, -1.3D-06, r^2= 8.6D+00
   Bfn.  Coefficient  Atom+Function         Bfn.  Coefficient  Atom+Function  
  ----- ------------  ---------------      ----- ------------  ---------------
     8      1.068328  1 Li px                43      1.068328  2 Li px         
    10     -0.718084  1 Li pz                45     -0.718084  2 Li pz         
     5     -0.491840  1 Li px                40     -0.491840  2 Li px         
    26     -0.436891  1 Li fxxx              31     -0.436891  1 Li fxzz       
    61     -0.436891  2 Li fxxx              66     -0.436891  2 Li fxzz       

 Vector   29  Occ=0.000000D+00  E= 3.629338D-01
              MO Center=  5.4D-06, -3.8D-13,  7.9D-06, r^2= 1.2D+01
   Bfn.  Coefficient  Atom+Function         Bfn.  Coefficient  Atom+Function  
  ----- ------------  ---------------      ----- ------------  ---------------
    21      4.298040  1 Li dxy               56      4.298040  2 Li dxy        
     8      3.895497  1 Li px                43     -3.895497  2 Li px         
    24     -2.886090  1 Li dyz               59     -2.886090  2 Li dyz        
    10     -2.615787  1 Li pz                45      2.615787  2 Li pz         
    11     -0.649382  1 Li px                46      0.649382  2 Li px         

 Vector   30  Occ=0.000000D+00  E= 3.629338D-01
              MO Center=  5.6D-05, -2.4D-12,  8.4D-05, r^2= 1.2D+01
   Bfn.  Coefficient  Atom+Function         Bfn.  Coefficient  Atom+Function  
  ----- ------------  ---------------      ----- ------------  ---------------
    24      4.298040  1 Li dyz               59      4.298040  2 Li dyz        
    10      3.895497  1 Li pz                45     -3.895497  2 Li pz         
    21      2.886090  1 Li dxy               56      2.886090  2 Li dxy        
     8      2.615787  1 Li px                43     -2.615787  2 Li px         
    13     -0.649382  1 Li pz                48      0.649382  2 Li pz         

 Vector   31  Occ=0.000000D+00  E= 3.768727D-01
              MO Center=  3.0D-05,  6.6D-11,  4.4D-05, r^2= 1.2D+01
   Bfn.  Coefficient  Atom+Function         Bfn.  Coefficient  Atom+Function  
  ----- ------------  ---------------      ----- ------------  ---------------
     9      2.906399  1 Li py                44     -2.906399  2 Li py         
     3     -2.363170  1 Li s                 38     -2.363170  2 Li s          
    23      1.712728  1 Li dyy               58      1.712728  2 Li dyy        
     4      1.238108  1 Li s                 39      1.238108  2 Li s          
    20     -0.876898  1 Li dxx               25     -0.876898  1 Li dzz        

 Vector   32  Occ=0.000000D+00  E= 4.127516D-01
              MO Center=  5.4D-05, -5.3D-12,  8.1D-05, r^2= 9.6D+00
   Bfn.  Coefficient  Atom+Function         Bfn.  Coefficient  Atom+Function  
  ----- ------------  ---------------      ----- ------------  ---------------
    23      3.234425  1 Li dyy               58      3.234425  2 Li dyy        
     3     -2.803080  1 Li s                 38     -2.803080  2 Li s          
     9      2.068127  1 Li py                44     -2.068127  2 Li py         
     4     -0.634077  1 Li s                 39     -0.634077  2 Li s          
    17     -0.387495  1 Li dyy               52     -0.387495  2 Li dyy        

 Vector   33  Occ=0.000000D+00  E= 4.154224D-01
              MO Center= -1.1D-05,  1.4D-13, -1.6D-05, r^2= 8.8D+00
   Bfn.  Coefficient  Atom+Function         Bfn.  Coefficient  Atom+Function  
  ----- ------------  ---------------      ----- ------------  ---------------
    24      1.708985  1 Li dyz               59      1.708985  2 Li dyz        
    21      1.150514  1 Li dxy               56      1.150514  2 Li dxy        
    13      0.668770  1 Li pz                48     -0.668770  2 Li pz         
     7      0.605741  1 Li pz                42     -0.605741  2 Li pz         
    33      0.597342  1 Li fyyz              68     -0.597342  2 Li fyyz       

 Vector   34  Occ=0.000000D+00  E= 4.154224D-01
              MO Center= -5.5D-06,  1.7D-13, -8.3D-06, r^2= 8.8D+00
   Bfn.  Coefficient  Atom+Function         Bfn.  Coefficient  Atom+Function  
  ----- ------------  ---------------      ----- ------------  ---------------
    21      1.708985  1 Li dxy               56      1.708985  2 Li dxy        
    24     -1.150514  1 Li dyz               59     -1.150514  2 Li dyz        
    11      0.668770  1 Li px                46     -0.668770  2 Li px         
     5      0.605741  1 Li px                40     -0.605741  2 Li px         
    29      0.597342  1 Li fxyy              64     -0.597342  2 Li fxyy       

 Vector   35  Occ=0.000000D+00  E= 5.122408D-01
              MO Center=  1.4D-05, -1.2D-13,  2.1D-05, r^2= 1.2D+01
   Bfn.  Coefficient  Atom+Function         Bfn.  Coefficient  Atom+Function  
  ----- ------------  ---------------      ----- ------------  ---------------
     3      9.039702  1 Li s                 38     -9.039702  2 Li s          
     9      5.952890  1 Li py                44      5.952890  2 Li py         
     4     -4.836967  1 Li s                 39      4.836967  2 Li s          
    23      3.688264  1 Li dyy               58     -3.688264  2 Li dyy        
    20      1.782420  1 Li dxx               25      1.782420  1 Li dzz        


 center of mass
 --------------
 x =   0.00000000 y =   0.00000000 z =   0.00000000

 moments of inertia (a.u.)
 ------------------
          58.969480000000           0.000000000000           0.000000000000
           0.000000000000           0.000000000000           0.000000000000
           0.000000000000           0.000000000000          58.969480000000

  Mulliken analysis of the total density
  --------------------------------------

    Atom       Charge   Shell Charges
 -----------   ------   -------------------------------------------------------
    1 Li   3     3.00   1.99 -0.02  0.57  0.44  0.03  0.03  0.00 -0.01 -0.03 -0.00
    2 Li   3     3.00   1.99 -0.02  0.57  0.44  0.03  0.03  0.00 -0.01 -0.03 -0.00

       Multipole analysis of the density wrt the origin
       ------------------------------------------------

     L   x y z        total         open         nuclear
     -   - - -        -----         ----         -------
     0   0 0 0     -0.000000      0.000000      6.000000

     1   1 0 0     -0.000002      0.000000      0.000000
     1   0 1 0      0.000000      0.000000      0.000000
     1   0 0 1     -0.000003      0.000000      0.000000

     2   2 0 0    -11.676405      0.000000      0.000000
     2   1 1 0     -0.000000      0.000000      0.000000
     2   1 0 1     -0.000000      0.000000      0.000000
     2   0 2 0     -4.849745      0.000000     25.215000
     2   0 1 1      0.000000      0.000000      0.000000
     2   0 0 2    -11.676405      0.000000      0.000000


 Parallel integral file used      20 records with       0 large values

                   NWChem Extensible Many-Electron Theory Module
                   ---------------------------------------------

              ======================================================
                   This portion of the program was automatically
                  generated by a Tensor Contraction Engine (TCE).
                  The development of this portion of the program
                 and TCE was supported by US Department of Energy,
                Office of Science, Office of Basic Energy Science.
                      TCE is a product of Battelle and PNNL.
              Please cite: S.Hirata, J.Phys.Chem.A 107, 9887 (2003).
              ======================================================

                                        Li2


            General Information
            -------------------
      Number of processors :     1
         Wavefunction type : Restricted Hartree-Fock
          No. of electrons :     6
           Alpha electrons :     3
            Beta electrons :     3
           No. of orbitals :   140
            Alpha orbitals :    70
             Beta orbitals :    70
        Alpha frozen cores :     0
         Beta frozen cores :     0
     Alpha frozen virtuals :     0
      Beta frozen virtuals :     0
         Spin multiplicity : singlet 
    Number of AO functions :    70
       Number of AO shells :    20
        Use of symmetry is : off
      Symmetry adaption is : off
         Schwarz screening : 0.10D-09

          Correlation Information
          -----------------------
          Calculation type : Coupled-cluster singles & doubles                           
   Perturbative correction : none                                                        
            Max iterations :      300
        Residual threshold : 0.10D-06
     T(0) DIIS level shift : 0.30D+00
     L(0) DIIS level shift : 0.00D+00
     T(1) DIIS level shift : 0.00D+00
     L(1) DIIS level shift : 0.00D+00
     T(R) DIIS level shift : 0.00D+00
     T(I) DIIS level shift : 0.00D+00
   CC-T/L Amplitude update :  5-th order DIIS
                I/O scheme : Global Array Library
        L-threshold :  0.10D-06
        EOM-threshold :  0.10D-06
 no EOMCCSD initial starts read in
 TCE RESTART OPTIONS
 READ_INT:   F
 WRITE_INT:  F
 READ_TA:    F
 WRITE_TA:   F
 READ_XA:    F
 WRITE_XA:   F
 READ_IN3:   F
 WRITE_IN3:  F
 SLICE:      F
 D4D5:       F
 quantumc:   F
 qrotation:  F
 pwtce:      F
 qducc:      T
 nacto:                         0
 nrotv:                         0
 nrot:                          0

            Memory Information
            ------------------
          Available GA space size is    1610607836 doubles
          Available MA space size is    1610609956 doubles

 Maximum block size        32 doubles

 tile_dim =     23

 Block   Spin    Irrep     Size     Offset   Alpha
 -------------------------------------------------
   1    alpha     a      3 doubles       0       1
   2    beta      a      3 doubles       3       1
   3    alpha     a     22 doubles       6       3
   4    alpha     a     22 doubles      28       4
   5    alpha     a     23 doubles      50       5
   6    beta      a     22 doubles      73       3
   7    beta      a     22 doubles      95       4
   8    beta      a     23 doubles     117       5

 Global array virtual files algorithm will be used

 Parallel file system coherency ......... OK

 Integral file          = ./Li2.aoints.0
 Record size in doubles =  65536        No. of integs per rec  =  43688
 Max. records in memory =     99        Max. records in file   = 280112
 No. of bits per label  =      8        No. of bits per value  =     64


 #quartets = 2.216D+04 #integrals = 8.606D+05 #direct =  0.0% #cached =100.0%


 Fock matrix recomputed
 1-e file size   =             4900
 1-e file name   = ./Li2.f1
 Cpu & wall time / sec            0.2            0.2
 4-electron integrals stored in orbital form

 v2    file size   =          5883722
 4-index algorithm nr.  13 is used
 imaxsize =       30
 imaxsize ichop =        0
 Cpu & wall time / sec            2.2            2.2
 T1-number-of-tasks                    3

 t1 file size   =              201
 t1 file name   = ./Li2.t1
 t1 file handle =       -998
 T2-number-of-boxes                   15

 t2 file size   =            67338
 t2 file name   = ./Li2.t2
 t2 file handle =       -996
CCSD iterations
 ---------------------------------------------------------
 Iter          Residuum       Correlation     Cpu    Wall 
 ---------------------------------------------------------
NEW TASK SCHEDULING
CCSD_T1_NTS --- OK
CCSD_T2_NTS --- OK
    1   0.1015401360362  -0.0563350624100     0.2     0.2
    2   0.0370978557296  -0.0616392715737     0.2     0.2
    3   0.0258093509649  -0.0640812874030     0.2     0.2
    4   0.0205448310162  -0.0656550825348     0.2     0.2
    5   0.0167173130685  -0.0668187619673     0.2     0.2
 MICROCYCLE DIIS UPDATE:                    5                    5
    6   0.0040642525053  -0.0713896646871     0.2     0.2
    7   0.0028964635388  -0.0713552234614     0.2     0.2
    8   0.0022969191728  -0.0713414418350     0.2     0.2
    9   0.0018654000562  -0.0713384039124     0.2     0.2
   10   0.0015338247830  -0.0713430050721     0.2     0.2
 MICROCYCLE DIIS UPDATE:                   10                    5
   11   0.0003479392839  -0.0714293242341     0.2     0.2
   12   0.0002103699895  -0.0714488076617     0.2     0.2
   13   0.0001625442804  -0.0714607626989     0.2     0.2
   14   0.0001304977402  -0.0714694074859     0.2     0.2
   15   0.0001063310195  -0.0714760113704     0.2     0.2
 MICROCYCLE DIIS UPDATE:                   15                    5
   16   0.0000293204594  -0.0715024204330     0.2     0.2
   17   0.0000211086605  -0.0715023112835     0.0     0.2
   18   0.0000168429869  -0.0715022494683     0.0     0.2
   19   0.0000137059423  -0.0715022361302     0.1     0.2
   20   0.0000112771010  -0.0715022671937     0.2     0.2
 MICROCYCLE DIIS UPDATE:                   20                    5
   21   0.0000029440391  -0.0715027282205     0.2     0.2
   22   0.0000019250432  -0.0715028831411     0.2     0.2
   23   0.0000014955748  -0.0715029873277     0.2     0.2
   24   0.0000012002861  -0.0715030640472     0.2     0.2
   25   0.0000009778011  -0.0715031228416     0.2     0.2
 MICROCYCLE DIIS UPDATE:                   25                    5
   26   0.0000002767091  -0.0715033572027     0.2     0.2
   27   0.0000001960444  -0.0715033568225     0.2     0.2
   28   0.0000001558025  -0.0715033565571     0.2     0.2
   29   0.0000001264085  -0.0715033566601     0.2     0.2
   30   0.0000001037908  -0.0715033571214     0.2     0.2
 MICROCYCLE DIIS UPDATE:                   30                    5
   31   0.0000000280584  -0.0715033620458     0.2     0.2
 -----------------------------------------------------------------
 Iterations converged
 CCSD correlation energy / hartree =        -0.071503362045842
 CCSD total energy / hartree       =       -14.927258209917643

 Singles contributions
     7a   (alpha) ---     3a   (alpha)        0.0463717060
    11a   (alpha) ---     3a   (alpha)       -0.0203310691
    14a   (alpha) ---     3a   (alpha)        0.0477972989

 Doubles contributions
     4a   (alpha)     4a   (beta ) ---     3a   (alpha)     3a   (beta )       -0.1016141139
     5a   (alpha)     5a   (beta ) ---     3a   (alpha)     3a   (beta )       -0.1135865094
     5a   (alpha)    13a   (beta ) ---     3a   (alpha)     3a   (beta )       -0.0964203277
     5a   (alpha)    22a   (beta ) ---     3a   (alpha)     3a   (beta )       -0.0334910643
     6a   (alpha)     6a   (beta ) ---     3a   (alpha)     3a   (beta )       -0.1135865093
     6a   (alpha)    12a   (beta ) ---     3a   (alpha)     3a   (beta )       -0.0964203308
     6a   (alpha)    21a   (beta ) ---     3a   (alpha)     3a   (beta )       -0.0334910643
     7a   (alpha)     7a   (beta ) ---     3a   (alpha)     3a   (beta )       -0.0308600150
     7a   (alpha)    11a   (beta ) ---     3a   (alpha)     3a   (beta )        0.0349681018
     7a   (alpha)    14a   (beta ) ---     3a   (alpha)     3a   (beta )       -0.0246280730
     7a   (alpha)    25a   (beta ) ---     3a   (alpha)     3a   (beta )        0.0256153770
    11a   (alpha)     7a   (beta ) ---     3a   (alpha)     3a   (beta )        0.0349681018
    11a   (alpha)    11a   (beta ) ---     3a   (alpha)     3a   (beta )       -0.0426677359
    11a   (alpha)    14a   (beta ) ---     3a   (alpha)     3a   (beta )        0.0265492154
    11a   (alpha)    25a   (beta ) ---     3a   (alpha)     3a   (beta )       -0.0320676899
    12a   (alpha)     6a   (beta ) ---     3a   (alpha)     3a   (beta )       -0.0964203308
    12a   (alpha)    12a   (beta ) ---     3a   (alpha)     3a   (beta )       -0.0827227870
    12a   (alpha)    21a   (beta ) ---     3a   (alpha)     3a   (beta )       -0.0295434158
    13a   (alpha)     5a   (beta ) ---     3a   (alpha)     3a   (beta )       -0.0964203277
    13a   (alpha)    13a   (beta ) ---     3a   (alpha)     3a   (beta )       -0.0827227836
    13a   (alpha)    22a   (beta ) ---     3a   (alpha)     3a   (beta )       -0.0295434149
    14a   (alpha)     7a   (beta ) ---     3a   (alpha)     3a   (beta )       -0.0246280730
    14a   (alpha)    11a   (beta ) ---     3a   (alpha)     3a   (beta )        0.0265492154
    14a   (alpha)    14a   (beta ) ---     3a   (alpha)     3a   (beta )       -0.0205501077
    21a   (alpha)     6a   (beta ) ---     3a   (alpha)     3a   (beta )       -0.0334910643
    21a   (alpha)    12a   (beta ) ---     3a   (alpha)     3a   (beta )       -0.0295434158
    22a   (alpha)     5a   (beta ) ---     3a   (alpha)     3a   (beta )       -0.0334910643
    22a   (alpha)    13a   (beta ) ---     3a   (alpha)     3a   (beta )       -0.0295434149
    25a   (alpha)     7a   (beta ) ---     3a   (alpha)     3a   (beta )        0.0256153770
    25a   (alpha)    11a   (beta ) ---     3a   (alpha)     3a   (beta )       -0.0320676899
    25a   (alpha)    25a   (beta ) ---     3a   (alpha)     3a   (beta )       -0.0265143802
     5a   (alpha)    27a   (beta ) ---     3a   (alpha)     3a   (beta )        0.0232413893
     6a   (alpha)    28a   (beta ) ---     3a   (alpha)     3a   (beta )        0.0232413893
    12a   (alpha)    28a   (beta ) ---     3a   (alpha)     3a   (beta )        0.0204072283
    13a   (alpha)    27a   (beta ) ---     3a   (alpha)     3a   (beta )        0.0204072278
    27a   (alpha)     5a   (beta ) ---     3a   (alpha)     3a   (beta )        0.0232413893
    27a   (alpha)    13a   (beta ) ---     3a   (alpha)     3a   (beta )        0.0204072278
    28a   (alpha)     6a   (beta ) ---     3a   (alpha)     3a   (beta )        0.0232413893
    28a   (alpha)    12a   (beta ) ---     3a   (alpha)     3a   (beta )        0.0204072283
 Ground state specification:
 exp(T)|Ref>~(1+T)|Ref>
 ------- a(p)+/a(q) strings ----------

 singles norm

 doubles norm

 Reference string
  0.98241059965538224      :(1a)+ (2a)+ (3a)+ (1b)+ (2b)+ (3b)+ |0>

 Singles strings

 Doubles strings
  -9.9826782535998346E-002 :(4a)+ (4b)+ (3b)  (3a)  (1a)+ (2a)+ (3a)+ (1b)+ (2b)+ (3b)+ |0>
 -0.11158859078000673      :(5a)+ (5b)+ (3b)  (3a)  (1a)+ (2a)+ (3a)+ (1b)+ (2b)+ (3b)+ |0>
 -0.11158859072949599      :(6a)+ (6b)+ (3b)  (3a)  (1a)+ (2a)+ (3a)+ (1b)+ (2b)+ (3b)+ |0>
 -------------------------------------
 enrep_tce =    2.1951219512195119     
  EHF(total)         =       -14.85575485
  Shift (HFtot-HFA)  =         0.00000000
 ALL OCCUPIED ORBITALS ARE ACTIVE IN DUCC --> NO SHIFT
 Number of active orbitals                    4
 Number of active alpha electrons                    3
 Number of active beta electrons                    3
  nos                     6
  nvs                   134
 noas                     3
 nobs                     3
 nvas                    67
 nvbs                    67
 nactv                     1
 DUCC MODEL =                     6
 NONHF =  T
 F-T1 correlation    =   -8.4781831278196512E-004
 V-T1-T1 correlation =    1.6553362399935288E-004
 V-T2 correlation    =   -7.0821077357206913E-002
 Total correlation   =   -7.1503362045989519E-002
 F-T1(Ext) correlation         =   -8.5156988729763190E-004
 V-T1(Ext)-T1(Ext) correlation =    1.6539888785762141E-004
 V-T2(Ext) correlation         =   -6.6464193166968985E-002
 Total Ext correlation         =   -6.7150364166409002E-002
1-BODY TIME =  216.310 SECONDS.
  HHHH TIME =  215.052 SECONDS.
  PPPP TIME =    0.819 SECONDS.
  HHHP TIME =    6.351 SECONDS.
  PPPH TIME =    1.163 SECONDS.
  HPHP TIME =    5.043 SECONDS.
  HHPP TIME =    1.394 SECONDS.
 ONE-BODY UNITARY CHECK
 TWO-BODY UNITARY CHECK
                    1                    1                    1                    3  -2.0771273101713965E-010
                    1                    1                    3                    1   2.0771272438646069E-010
                    1                    2                    2                    1  -1.1361883656135774E-011
                    1                    2                    2                    3  -2.2631029949343739E-010
                    1                    2                    3                    2   7.6053768664763322E-010
                    1                    3                    1                    1   2.0771273101713965E-010
                    1                    3                    2                    2  -1.6884043211658495E-011
                    1                    3                    3                    1  -9.2487238978478103E-009
                    1                    3                    3                    3   1.0343684742617472E-009
                    1                    4                    1                    6  -1.0182292092819623E-009
                    1                    4                    2                    5  -3.8370118193853386E-010
                    1                    4                    3                    4  -1.8878896682061885E-008
                    1                    4                    3                    6   7.3279804054665609E-008
                    1                    4                    4                    3   8.1051618194827313E-010
                    1                    4                    5                    2   3.8370118193853386E-010
                    1                    4                    6                    1   1.9086609709395574E-008
                    1                    4                    6                    3  -7.3279804049461439E-008
                    1                    5                    2                    4  -4.3902692592467929E-010
                    1                    5                    2                    6   6.9653642575939756E-010
                    1                    5                    3                    5  -1.9257471034483942E-008
                    1                    5                    5                    1   4.2766779007052946E-010
                    1                    5                    5                    3  -9.2284653530061433E-010
                    1                    5                    6                    2   2.0018008542455057E-008
                    1                    6                    1                    4   1.0182292092819623E-009
                    1                    6                    2                    5   1.3113088254135263E-009
                    1                    6                    3                    4   3.0776274244359580E-008
                    1                    6                    3                    6   7.1918136478879222E-007
                    1                    6                    4                    1  -8.1051641787066586E-010
                    1                    6                    5                    2  -1.3281928890052086E-009
                    1                    6                    6                    1  -4.0024999814480822E-008
                    1                    6                    6                    3  -7.1814699631684090E-007
                    2                    1                    1                    2   1.1361883656135774E-011
                    2                    1                    2                    3  -7.1599505838126909E-012
                    2                    1                    3                    2  -5.2706741575370142E-010
                    2                    2                    1                    3   1.6884043211658495E-011
                    2                    2                    3                    1  -1.6884044234722094E-011
                    2                    3                    1                    2   2.2631029949343739E-010
                    2                    3                    2                    1   7.1599505838126909E-012
                    2                    3                    3                    2  -1.0918811188531663E-008
                    2                    4                    1                    5   4.3902692592467929E-010
                    2                    4                    2                    6   1.5263648678320862E-010
                    2                    4                    3                    5  -2.0554748764167741E-008
                    2                    4                    4                    2  -4.2766779007052946E-010
                    2                    4                    5                    3  -1.5979620404671380E-010
                    2                    4                    6                    2   2.0027681083001347E-008
                    2                    5                    1                    4   3.8370118193853386E-010
                    2                    5                    1                    6  -1.3113088254135263E-009
                    2                    5                    3                    4  -2.0719742560570964E-008
                    2                    5                    3                    6   5.4056644563371670E-008
                    2                    5                    4                    1  -3.8370118193853386E-010
                    2                    5                    4                    3   1.3281927502273305E-009
                    2                    5                    6                    1   2.0702858635757160E-008
                    2                    5                    6                    3  -5.4056644563371670E-008
                    2                    6                    1                    5  -6.9653642575939756E-010
                    2                    6                    2                    4  -1.5263648678320862E-010
                    2                    6                    3                    5   1.7686542317513210E-008
                    2                    6                    4                    2   9.2284661856734118E-010
                    2                    6                    5                    1   1.5979653711362118E-010
                    2                    6                    6                    2  -2.8605355362198992E-008
                    3                    1                    1                    1  -2.0771272438646069E-010
                    3                    1                    1                    3   9.2487238978478103E-009
                    3                    1                    2                    2   1.6884044234722094E-011
                    3                    1                    3                    3  -1.0343684593574084E-009
                    3                    2                    1                    2  -7.6053768664763322E-010
                    3                    2                    2                    1   5.2706741575370142E-010
                    3                    2                    2                    3   1.0918811188531663E-008
                    3                    3                    1                    3  -1.0343684742617472E-009
                    3                    3                    3                    1   1.0343684593574084E-009
                    3                    4                    1                    4   1.8878896682061885E-008
                    3                    4                    1                    6  -3.0776274244359580E-008
                    3                    4                    2                    5   2.0719742560570964E-008
                    3                    4                    3                    6   4.5575107329547115E-009
                    3                    4                    4                    1  -1.9086609473473182E-008
                    3                    4                    4                    3   4.0024999869991973E-008
                    3                    4                    5                    2  -2.0702858496979282E-008
                    3                    4                    6                    3  -5.5918792105438819E-009
                    3                    5                    1                    5   1.9257471034483942E-008
                    3                    5                    2                    4   2.0554748764167741E-008
                    3                    5                    2                    6  -1.7686542317513210E-008
                    3                    5                    4                    2  -2.0018008875521964E-008
                    3                    5                    5                    1  -2.0027681166268074E-008
                    3                    5                    5                    3   2.8605355306687841E-008
                    3                    6                    1                    4  -7.3279804054665609E-008
                    3                    6                    1                    6  -7.1918136478879222E-007
                    3                    6                    2                    5  -5.4056644563371670E-008
                    3                    6                    3                    4  -4.5575107329547115E-009
                    3                    6                    4                    1   7.3279804073747568E-008
                    3                    6                    4                    3   7.1814699630599887E-007
                    3                    6                    5                    2   5.4056644570310564E-008
                    3                    6                    6                    1   5.5918792066407541E-009
                    4                    1                    1                    6   8.1051641787066586E-010
                    4                    1                    2                    5   3.8370118193853386E-010
                    4                    1                    3                    4   1.9086609473473182E-008
                    4                    1                    3                    6  -7.3279804073747568E-008
                    4                    1                    4                    3  -1.0182289733595695E-009
                    4                    1                    5                    2  -3.8370118193853386E-010
                    4                    1                    6                    1  -1.8878896917984278E-008
                    4                    1                    6                    3   7.3279804070278121E-008
                    4                    2                    2                    4   4.2766779007052946E-010
                    4                    2                    2                    6  -9.2284661856734118E-010
                    4                    2                    3                    5   2.0018008875521964E-008
                    4                    2                    5                    1  -4.3903203295059257E-010
                    4                    2                    5                    3   6.9653609269249017E-010
                    4                    2                    6                    2  -1.9257470951217215E-008
                    4                    3                    1                    4  -8.1051618194827313E-010
                    4                    3                    2                    5  -1.3281927502273305E-009
                    4                    3                    3                    4  -4.0024999869991973E-008
                    4                    3                    3                    6  -7.1814699630599887E-007
                    4                    3                    4                    1   1.0182289733595695E-009
                    4                    3                    5                    2   1.3113086866356483E-009
                    4                    3                    6                    1   3.0776274341504095E-008
                    4                    3                    6                    3   7.1918136478272068E-007
                    4                    4                    4                    6  -2.0771273395126499E-010
                    4                    4                    6                    4   2.0771273353780868E-010
                    4                    5                    5                    4  -1.1361883656135774E-011
                    4                    5                    5                    6  -2.2631030816705477E-010
                    4                    5                    6                    5   7.6053766930039846E-010
                    4                    6                    4                    4   2.0771273395126499E-010
                    4                    6                    5                    5  -1.6884044643113157E-011
                    4                    6                    6                    4  -9.2487240643812640E-009
                    4                    6                    6                    6   1.0343684695999312E-009
                    5                    1                    1                    5  -4.2766779007052946E-010
                    5                    1                    2                    6  -1.5979653711362118E-010
                    5                    1                    3                    5   2.0027681166268074E-008
                    5                    1                    4                    2   4.3903203295059257E-010
                    5                    1                    5                    3   1.5263640351648178E-010
                    5                    1                    6                    2  -2.0554748431100833E-008
                    5                    2                    1                    4  -3.8370118193853386E-010
                    5                    2                    1                    6   1.3281928890052086E-009
                    5                    2                    3                    4   2.0702858496979282E-008
                    5                    2                    3                    6  -5.4056644570310564E-008
                    5                    2                    4                    1   3.8370118193853386E-010
                    5                    2                    4                    3  -1.3113086866356483E-009
                    5                    2                    6                    1  -2.0719742699348842E-008
                    5                    2                    6                    3   5.4056644570310564E-008
                    5                    3                    1                    5   9.2284653530061433E-010
                    5                    3                    2                    4   1.5979620404671380E-010
                    5                    3                    3                    5  -2.8605355306687841E-008
                    5                    3                    4                    2  -6.9653609269249017E-010
                    5                    3                    5                    1  -1.5263640351648178E-010
                    5                    3                    6                    2   1.7686542366085467E-008
                    5                    4                    4                    5   1.1361883656135774E-011
                    5                    4                    5                    6  -7.1599557879831188E-012
                    5                    4                    6                    5  -5.2706740881480751E-010
                    5                    5                    4                    6   1.6884044643113157E-011
                    5                    5                    6                    4  -1.6884044842860318E-011
                    5                    6                    4                    5   2.2631030816705477E-010
                    5                    6                    5                    4   7.1599557879831188E-012
                    5                    6                    6                    5  -1.0918811244042814E-008
                    6                    1                    1                    4  -1.9086609709395574E-008
                    6                    1                    1                    6   4.0024999814480822E-008
                    6                    1                    2                    5  -2.0702858635757160E-008
                    6                    1                    3                    6  -5.5918792066407541E-009
                    6                    1                    4                    1   1.8878896917984278E-008
                    6                    1                    4                    3  -3.0776274341504095E-008
                    6                    1                    5                    2   2.0719742699348842E-008
                    6                    1                    6                    3   4.5575107364241585E-009
                    6                    2                    1                    5  -2.0018008542455057E-008
                    6                    2                    2                    4  -2.0027681083001347E-008
                    6                    2                    2                    6   2.8605355362198992E-008
                    6                    2                    4                    2   1.9257470951217215E-008
                    6                    2                    5                    1   2.0554748431100833E-008
                    6                    2                    5                    3  -1.7686542366085467E-008
                    6                    3                    1                    4   7.3279804049461439E-008
                    6                    3                    1                    6   7.1814699631684090E-007
                    6                    3                    2                    5   5.4056644563371670E-008
                    6                    3                    3                    4   5.5918792105438819E-009
                    6                    3                    4                    1  -7.3279804070278121E-008
                    6                    3                    4                    3  -7.1918136478272068E-007
                    6                    3                    5                    2  -5.4056644570310564E-008
                    6                    3                    6                    1  -4.5575107364241585E-009
                    6                    4                    4                    4  -2.0771273353780868E-010
                    6                    4                    4                    6   9.2487240643812640E-009
                    6                    4                    5                    5   1.6884044842860318E-011
                    6                    4                    6                    6  -1.0343684548108154E-009
                    6                    5                    4                    5  -7.6053766930039846E-010
                    6                    5                    5                    4   5.2706740881480751E-010
                    6                    5                    5                    6   1.0918811244042814E-008
                    6                    6                    4                    6  -1.0343684695999312E-009
                    6                    6                    6                    4   1.0343684548108154E-009
 TWO-BODY ANTISYMMETRY CHECK
 TRANSFORMED ~FOCK~ MATRIX
    1    1        -2.4616679556
    1    3         0.0088088939
    2    2        -2.4592360380
    2    4        -0.0044384945
    3    1         0.0088088939
    3    3        -0.2258043282
    4    2        -0.0044384945
    4    4         0.0862001170
 begin_one_electron_integrals
    1    1        -5.1691801634
    1    3         0.1476325521
    2    2        -5.1706308537
    2    4         0.1558144823
    3    1         0.1476325546
    3    3        -1.6301938913
    4    2         0.1558144823
    4    4        -1.3861812695
 end_one_electron_integrals
 begin_two_electron_integrals
    1    1    1    1        0.9339612006
    1    1    1    2       -0.0000000003
    1    1    1    3       -0.0697656738
    1    2    1    1       -0.0000000003
    1    2    1    2        0.6922235645
    1    2    1    4       -0.0721533092
    1    3    1    1       -0.0697656919
    1    3    1    3        0.0079407523
    1    4    1    2       -0.0721533092
    1    4    1    4        0.0127213920
    1    1    2    1       -0.0000000003
    1    1    2    2        0.9361813246
    1    1    2    4       -0.0752674933
    1    2    2    1        0.6924308587
    1    2    2    2        0.0000000003
    1    2    2    3       -0.0741469524
    1    3    2    2       -0.0701090345
    1    3    2    4        0.0106739367
    1    4    2    1       -0.0721807397
    1    4    2    3        0.0107557409
    1    1    3    1       -0.0697656728
    1    1    3    3        0.3022606759
    1    2    3    2       -0.0741557101
    1    2    3    4        0.0716317407
    1    3    3    1        0.0109022143
    1    3    3    3       -0.0029869060
    1    4    3    2        0.0106533576
    1    4    3    4       -0.0020551401
    1    1    4    2       -0.0752674933
    1    1    4    4        0.2739709077
    1    2    4    1       -0.0721807397
    1    2    4    3        0.0716329517
    1    3    4    2        0.0105721687
    1    3    4    4       -0.0031060388
    1    4    4    1        0.0104211524
    1    4    4    3       -0.0011484898
    2    1    1    1       -0.0000000003
    2    1    1    2        0.6924308591
    2    1    1    4       -0.0721807397
    2    2    1    1        0.9361813242
    2    2    1    2        0.0000000003
    2    2    1    3       -0.0701090143
    2    3    1    2       -0.0741469731
    2    3    1    4        0.0107557409
    2    4    1    1       -0.0752674933
    2    4    1    3        0.0106739367
    2    1    2    1        0.6922235649
    2    1    2    2        0.0000000003
    2    1    2    3       -0.0741557114
    2    2    2    1        0.0000000003
    2    2    2    2        0.9380133872
    2    2    2    4       -0.0755332249
    2    3    2    1       -0.0741557308
    2    3    2    3        0.0081308390
    2    4    2    2       -0.0755332249
    2    4    2    4        0.0128692233
    2    1    3    2       -0.0741469530
    2    1    3    4        0.0716329517
    2    2    3    1       -0.0701090145
    2    2    3    3        0.3022074191
    2    3    3    2        0.0109652570
    2    3    3    4       -0.0044587282
    2    4    3    1        0.0105721687
    2    4    3    3       -0.0054121166
    2    1    4    1       -0.0721533092
    2    1    4    3        0.0716317407
    2    2    4    2       -0.0755332249
    2    2    4    4        0.2740785020
    2    3    4    1        0.0106533576
    2    3    4    3       -0.0052779022
    2    4    4    2        0.0105389461
    2    4    4    4       -0.0022456888
    3    1    1    1       -0.0697656730
    3    1    1    3        0.0109021835
    3    2    1    2       -0.0741557101
    3    2    1    4        0.0106533576
    3    3    1    1        0.3022607159
    3    3    1    3       -0.0029869071
    3    4    1    2        0.0716317407
    3    4    1    4       -0.0020551401
    3    1    2    2       -0.0701090152
    3    1    2    4        0.0105721687
    3    2    2    1       -0.0741469525
    3    2    2    3        0.0109652393
    3    3    2    2        0.3022074477
    3    3    2    4       -0.0054121166
    3    4    2    1        0.0716329517
    3    4    2    3       -0.0044587282
    3    1    3    1        0.0079406791
    3    1    3    3       -0.0029876252
    3    2    3    2        0.0081307849
    3    2    3    4       -0.0052779022
    3    3    3    1       -0.0029869116
    3    3    3    3        0.2173207958
    3    4    3    2       -0.0052779022
    3    4    3    4        0.0244720510
    3    1    4    2        0.0106739367
    3    1    4    4       -0.0031060388
    3    2    4    1        0.0107557409
    3    2    4    3       -0.0044587282
    3    3    4    2       -0.0054121166
    3    3    4    4        0.2175029931
    3    4    4    1       -0.0011484898
    3    4    4    3        0.0377633206
    4    1    1    2       -0.0721807397
    4    1    1    4        0.0104211524
    4    2    1    1       -0.0752674933
    4    2    1    3        0.0105721687
    4    3    1    2        0.0716329517
    4    3    1    4       -0.0011484898
    4    4    1    1        0.2739709077
    4    4    1    3       -0.0031060388
    4    1    2    1       -0.0721533092
    4    1    2    3        0.0106533576
    4    2    2    2       -0.0755332249
    4    2    2    4        0.0105389461
    4    3    2    1        0.0716317407
    4    3    2    3       -0.0052779022
    4    4    2    2        0.2740785020
    4    4    2    4       -0.0022456888
    4    1    3    2        0.0107557409
    4    1    3    4       -0.0011484898
    4    2    3    1        0.0106739367
    4    2    3    3       -0.0054121166
    4    3    3    2       -0.0044587282
    4    3    3    4        0.0377633206
    4    4    3    1       -0.0031060388
    4    4    3    3        0.2175029931
    4    1    4    1        0.0127213920
    4    1    4    3       -0.0020551401
    4    2    4    2        0.0128692233
    4    2    4    4       -0.0022456888
    4    3    4    1       -0.0020551401
    4    3    4    3        0.0244720510
    4    4    4    2       -0.0022456888
    4    4    4    4        0.2166751713
 end_two_electron_integrals

 Parallel integral file used      20 records with       0 large values


 Task  times  cpu:      481.6s     wall:      484.4s


                                NWChem Input Module
                                -------------------


 Summary of allocated global arrays
-----------------------------------
  No active global arrays


MA_summarize_allocated_blocks: starting scan ...
MA_summarize_allocated_blocks: scan completed: 0 heap blocks, 0 stack blocks
MA usage statistics:

	allocation statistics:
					      heap	     stack
					      ----	     -----
	current number of blocks	         0	         0
	maximum number of blocks	        18	        42
	current total bytes		         0	         0
	maximum total bytes		  51988456	9998573272
	maximum total K-bytes		     51989	   9998574
	maximum total M-bytes		        52	      9999


                                     CITATION
                                     --------
                Please cite the following reference when publishing
                           results obtained with NWChem:

          E. Apra, E. J. Bylaska, W. A. de Jong, N. Govind, K. Kowalski,
       T. P. Straatsma, M. Valiev, H. J. J. van Dam, Y. Alexeev, J. Anchell,
       V. Anisimov, F. W. Aquino, R. Atta-Fynn, J. Autschbach, N. P. Bauman,
     J. C. Becca, D. E. Bernholdt, K. Bhaskaran-Nair, S. Bogatko, P. Borowski,
         J. Boschen, J. Brabec, A. Bruner, E. Cauet, Y. Chen, G. N. Chuev,
      C. J. Cramer, J. Daily, M. J. O. Deegan, T. H. Dunning Jr., M. Dupuis,
   K. G. Dyall, G. I. Fann, S. A. Fischer, A. Fonari, H. Fruchtl, L. Gagliardi,
      J. Garza, N. Gawande, S. Ghosh, K. Glaesemann, A. W. Gotz, J. Hammond,
       V. Helms, E. D. Hermes, K. Hirao, S. Hirata, M. Jacquelin, L. Jensen,
   B. G. Johnson, H. Jonsson, R. A. Kendall, M. Klemm, R. Kobayashi, V. Konkov,
      S. Krishnamoorthy, M. Krishnan, Z. Lin, R. D. Lins, R. J. Littlefield,
      A. J. Logsdail, K. Lopata, W. Ma, A. V. Marenich, J. Martin del Campo,
   D. Mejia-Rodriguez, J. E. Moore, J. M. Mullin, T. Nakajima, D. R. Nascimento,
    J. A. Nichols, P. J. Nichols, J. Nieplocha, A. Otero-de-la-Roza, B. Palmer,
    A. Panyala, T. Pirojsirikul, B. Peng, R. Peverati, J. Pittner, L. Pollack,
   R. M. Richard, P. Sadayappan, G. C. Schatz, W. A. Shelton, D. W. Silverstein,
   D. M. A. Smith, T. A. Soares, D. Song, M. Swart, H. L. Taylor, G. S. Thomas,
            V. Tipparaju, D. G. Truhlar, K. Tsemekhman, T. Van Voorhis,
      A. Vazquez-Mayagoitia, P. Verma, O. Villa, A. Vishnu, K. D. Vogiatzis,
        D. Wang, J. H. Weare, M. J. Williamson, T. L. Windus, K. Wolinski,
        A. T. Wong, Q. Wu, C. Yang, Q. Yu, M. Zacharias, Z. Zhang, Y. Zhao,
                                and R. J. Harrison
                        "NWChem: Past, present, and future
                         J. Chem. Phys. 152, 184102 (2020)
                               doi:10.1063/5.0004997

                                      AUTHORS
                                      -------
  E. Apra, E. J. Bylaska, N. Govind, K. Kowalski, M. Valiev, D. Mejia-Rodriguez,
       A. Kunitsa, N. P. Bauman, A. Panyala, W. A. de Jong, T. P. Straatsma,
        H. J. J. van Dam, D. Wang, T. L. Windus, J. Hammond, J. Autschbach,
    K. Bhaskaran-Nair, J. Brabec, K. Lopata, S. A. Fischer, S. Krishnamoorthy,
     M. Jacquelin, W. Ma, M. Klemm, O. Villa, Y. Chen, V. Anisimov, F. Aquino,
    S. Hirata, M. T. Hackler, Eric Hermes, L. Jensen, J. E. Moore, J. C. Becca,
      V. Konjkov, T. Risthaus, M. Malagoli, A. Marenich, A. Otero-de-la-Roza,
        J. Mullin, P. Nichols, R. Peverati, J. Pittner, Y. Zhao, P.-D. Fan,
        A. Fonari, M. J. Williamson, R. J. Harrison, J. R. Rehr, M. Dupuis,
     D. Silverstein, D. M. A. Smith, J. Nieplocha, V. Tipparaju, M. Krishnan,
     B. E. Van Kuiken, A. Vazquez-Mayagoitia, M. Swart, Q. Wu, T. Van Voorhis,
     A. A. Auer, M. Nooijen, L. D. Crosby, E. Brown, G. Cisneros, G. I. Fann,
   H. Fruchtl, J. Garza, K. Hirao, R. A. Kendall, J. A. Nichols, K. Tsemekhman,
    K. Wolinski, J. Anchell, D. E. Bernholdt, P. Borowski, T. Clark, D. Clerc,
   H. Dachsel, M. J. O. Deegan, K. Dyall, D. Elwood, E. Glendening, M. Gutowski,
   A. C. Hess, J. Jaffe, B. G. Johnson, J. Ju, R. Kobayashi, R. Kutteh, Z. Lin,
   R. Littlefield, X. Long, B. Meng, T. Nakajima, S. Niu, L. Pollack, M. Rosing,
   K. Glaesemann, G. Sandrone, M. Stave, H. Taylor, G. Thomas, J. H. van Lenthe,
                               A. T. Wong, Z. Zhang.

 Total times  cpu:      483.1s     wall:      485.9s
