 argument  1 = input.nw
  NWChem w/ OpenMP: maximum threads =    1



============================== echo of input deck ==============================
 echo
 start Li2
 title "Li2"

 memory total 24 gb

 geometry units bohr
 symmetry c1
        Li  0.00000000  0.00000000  0.00000000
        Li  0.00000000  7.5  0.00000000
 end

 basis
   * library cc-pVTZ
 end

 mcscf
   active  4
   actelec 6
   multiplicity 1
   maxiter 40
   vectors input Li2.mos
   vectors output Li2.mos
 end

 task mcscf

 scf
   vectors input Li2.mos
   vectors output Li2-7.5.mos
   noscf
 end

 tce
   2eorb
   2emet 13
   ccsd
   maxiter 300
   lshift 0.3
 end

# set tce:print_integrals T
# set tce:qorb 10
# set tce:qela 1
# set tce:qelb 1

 set tce:qducc T
 set tce:nactv 1
 set tce:nonhf T
 set tce:ducc_model 6

 set tce:printtol 0.02

 task tce
================================================================================


                                         
                                         


             Northwest Computational Chemistry Package (NWChem) 7.0.1
             --------------------------------------------------------


                    Environmental Molecular Sciences Laboratory
                       Pacific Northwest National Laboratory
                                Richland, WA 99352

                              Copyright (c) 1994-2020
                       Pacific Northwest National Laboratory
                            Battelle Memorial Institute

             NWChem is an open-source computational chemistry package
                        distributed under the terms of the
                      Educational Community License (ECL) 2.0
             A copy of the license is included with this distribution
                              in the LICENSE.TXT file

                                  ACKNOWLEDGMENT
                                  --------------

            This software and its documentation were developed at the
            EMSL at Pacific Northwest National Laboratory, a multiprogram
            national laboratory, operated for the U.S. Department of Energy
            by Battelle under Contract Number DE-AC05-76RL01830. Support
            for this work was provided by the Department of Energy Office
            of Biological and Environmental Research, Office of Basic
            Energy Sciences, and the Office of Advanced Scientific Computing.


           Job information
           ---------------

    hostname        = WE46210
    program         = /home/baum612/code/nwchem/bin/LINUX64/nwchem
    date            = Wed Nov 15 03:06:48 2023

    compiled        = Mon_Nov_06_10:06:57_2023
    source          = /home/baum612/code/nwchem
    nwchem branch   = 7.0.0
    nwchem revision = nwchem_on_git-4191-g39d87d64de
    ga revision     = 5.8.1
    use scalapack   = F
    input           = input.nw
    prefix          = Li2.
    data base       = ./Li2.db
    status          = startup
    nproc           =        1
    time left       =     -1s



           Memory information
           ------------------

    heap     =  805306362 doubles =   6144.0 Mbytes
    stack    =  805306367 doubles =   6144.0 Mbytes
    global   = 1610612736 doubles =  12288.0 Mbytes (distinct from heap & stack)
    total    = 3221225465 doubles =  24576.0 Mbytes
    verify   = yes
    hardfail = no 


           Directory information
           ---------------------

  0 permanent = .
  0 scratch   = .




                                NWChem Input Module
                                -------------------


                                        Li2
                                        ---
 Turning off AUTOSYM since
 SYMMETRY directive was detected!


          ------
          auto-z
          ------
     1 autoz failed with cvr_scaling = 1.2 changing to 1.3
     2 autoz failed with cvr_scaling = 1.3 changing to 1.4
     3 autoz failed with cvr_scaling = 1.4 changing to 1.5
     4 autoz failed with cvr_scaling = 1.5 changing to 1.6
  no constraints, skipping    0.0000000000000000     
  no constraints, skipping    0.0000000000000000     


                             Geometry "geometry" -> ""
                             -------------------------

 Output coordinates in a.u. (scale by  1.000000000 to convert to a.u.)

  No.       Tag          Charge          X              Y              Z
 ---- ---------------- ---------- -------------- -------------- --------------
    1 Li                   3.0000     0.00000000    -3.75000000     0.00000000
    2 Li                   3.0000     0.00000000     3.75000000     0.00000000

      Atomic Mass 
      ----------- 

      Li                 7.016000


 Effective nuclear repulsion energy (a.u.)       1.2000000000

            Nuclear Dipole moment (a.u.) 
            ----------------------------
        X                 Y               Z
 ---------------- ---------------- ----------------
     0.0000000000     0.0000000000     0.0000000000



                                Z-matrix (autoz)
                                -------- 

 Units are Angstrom for bonds and degrees for angles

      Type          Name      I     J     K     L     M      Value
      ----------- --------  ----- ----- ----- ----- ----- ----------
    1 Stretch                  1     2                       3.96883


            XYZ format geometry
            -------------------
     2
 geometry
 Li                    0.00000000    -1.98441468     0.00000000
 Li                    0.00000000     1.98441468     0.00000000



 Summary of "ao basis" -> "" (cartesian)
 ------------------------------------------------------------------------------
       Tag                 Description            Shells   Functions and Types
 ---------------- ------------------------------  ------  ---------------------
 *                          cc-pVTZ                   on all atoms 


                      Basis "ao basis" -> "ao basis" (cartesian)
                      -----
  Li (Lithium)
  ------------
            Exponent  Coefficients 
       -------------- ---------------------------------------------------------
  1 S  5.98800000E+03  0.000133
  1 S  8.98900000E+02  0.001025
  1 S  2.05900000E+02  0.005272
  1 S  5.92400000E+01  0.020929
  1 S  1.98700000E+01  0.066340
  1 S  7.40600000E+00  0.165775
  1 S  2.93000000E+00  0.315038
  1 S  1.18900000E+00  0.393523
  1 S  4.79800000E-01  0.190870

  2 S  5.98800000E+03 -0.000021
  2 S  8.98900000E+02 -0.000161
  2 S  2.05900000E+02 -0.000820
  2 S  5.92400000E+01 -0.003326
  2 S  1.98700000E+01 -0.010519
  2 S  7.40600000E+00 -0.028097
  2 S  2.93000000E+00 -0.055936
  2 S  1.18900000E+00 -0.099237
  2 S  4.79800000E-01 -0.112189

  3 S  7.50900000E-02  1.000000

  4 S  2.83200000E-02  1.000000

  5 P  3.26600000E+00  0.008630
  5 P  6.51100000E-01  0.047538
  5 P  1.69600000E-01  0.209772

  6 P  5.57800000E-02  1.000000

  7 P  2.05000000E-02  1.000000

  8 D  1.87400000E-01  1.000000

  9 D  8.01000000E-02  1.000000

 10 F  1.82900000E-01  1.000000



 Summary of "ao basis" -> "ao basis" (cartesian)
 ------------------------------------------------------------------------------
       Tag                 Description            Shells   Functions and Types
 ---------------- ------------------------------  ------  ---------------------
 Li                         cc-pVTZ                 10       35   4s3p2d1f



                            NWChem Direct MCSCF Module
                            --------------------------


                                        Li2


     -----------------------------------
       Basis functions:             70
       Inactive shells:              0
       Active shells:                4
       Active electrons:             6
       Symmetry:                    a       
       Multiplicity:                 1
       Orbital rotations:          264
     -----------------------------------

     -----------------------------------
       E2 extrapolation:             F
       Conjugacy:                    T
       Micro CI relax:               T
       Canonical orbitals:           T
       Maximum iterations:          40
       Converge threshold:    1.00E-04
       Conjugacy resets:            20
       Initial levelshift:        0.10
     -----------------------------------

 Loading old vectors from job with title :

Li2


   input molecular orbitals = ./Li2.mos
  output molecular orbtials = ./Li2.mos

       No. of determinants:            16


  Starting Orbital Energies
    -2.473736    -2.473732    -0.156147    -0.035752     0.026270     0.026270
     0.034800     0.047338     0.049085     0.049085     0.101126     0.112065
     0.113569     0.113569     0.135228     0.135228     0.144159     0.166086
     0.215770     0.215770     0.221118     0.221118     0.252648     0.252648
     0.281805     0.314627     0.314627     0.360941     0.368899     0.368899
     0.382308     0.382445     0.382445     0.398828     0.422421     0.489938
     0.672021     0.689359     0.689359     0.709903     0.709903     0.739794
     0.739794     0.742890     0.742890     0.750271     0.750271     0.759939
     0.759939     0.762022     0.762022     0.767447     0.767447     0.807521
     0.808693     0.808693     0.886698     0.931388     0.931388     0.934543
     0.934543     0.936087     0.953815     0.953815     0.955464     1.178357
     1.366083     1.399803     6.364387     6.375414

  Orbital Symmetry Irreps
a    a    a    a    a    a    a    a    a    a    a    a    a    a    a   
a    a    a    a    a    a    a    a    a    a    a    a    a    a    a   
a    a    a    a    a    a    a    a    a    a    a    a    a    a    a   
a    a    a    a    a    a    a    a    a    a    a    a    a    a    a   
a    a    a    a    a    a    a    a    a    a   

 Integral file          = ./Li2.aoints.0
 Record size in doubles =  65536        No. of integs per rec  =  43688
 Max. records in memory =     99        Max. records in file   = 280055
 No. of bits per label  =      8        No. of bits per value  =     64


 #quartets = 2.211D+04 #integrals = 8.592D+05 #direct =  0.0% #cached =100.0%




          %%%%% MacroIteration   1 %%%%%


          Number of sigma calls:        5
                       o<<<<< (aa):             0.00
                       o<<<<< (bb):             0.00
                       o<<<<< (ab):             0.00
                       o<<<<< (total)           0.00
                       o<<<<< (aa) ff           0.00
                       o<<<<< (aa) gop          0.00
                       o<<<<< (aa) dot          0.00
                       o<<<<< (ab) str          0.00
                       o<<<<< (ab) gath         0.00
                       o<<<<< (ab) dotab        0.00
                       o<<<<< (ab) scat         0.00
                       o<<<<< (ab) sync         0.00
                       o<<<<< Density           0.00
                       o<<<<< Density one       0.00
                       o<<<<< Density two       0.00
                       o<<<<< Density ab        0.00
                       o<<<<< Spin adapt        0.00
                       o<<<<< Symm adapt        0.00

                       o<<<<< (ab) max sync:      0.00

           >>>| Valence CI:            -16.073812690493
           >>>| MCSCF energy:          -14.873812690493
           >>>| Gradient norm:          0.285535052D-02
     --- Warning:   14 Hessian diagonals < 0.05 ---

                              ----- Line search ------

        step       energy         lsg     num-lsg   num-lsh   lsrat    time
      ------- ---------------- --------- --------- --------- ------- --------
       0.0000     -14.87381269 -5.13D-06  0.00D+00  0.00D+00 0.0D+00      1.1

          Number of sigma calls:        5
                       o<<<<< (aa):             0.00
                       o<<<<< (bb):             0.00
                       o<<<<< (ab):             0.00
                       o<<<<< (total)           0.00
                       o<<<<< (aa) ff           0.00
                       o<<<<< (aa) gop          0.00
                       o<<<<< (aa) dot          0.00
                       o<<<<< (ab) str          0.00
                       o<<<<< (ab) gath         0.00
                       o<<<<< (ab) dotab        0.00
                       o<<<<< (ab) scat         0.00
                       o<<<<< (ab) sync         0.00
                       o<<<<< Density           0.00
                       o<<<<< Density one       0.00
                       o<<<<< Density two       0.00
                       o<<<<< Density ab        0.00
                       o<<<<< Spin adapt        0.00
                       o<<<<< Symm adapt        0.00

                       o<<<<< (ab) max sync:      0.00
       1.0000     -14.87381548 -4.57D-07 -4.57D-07  4.67D-06 8.9D-02      1.2
     --- Orbitals canonicalized ---



          %%%%% MacroIteration   2 %%%%%


          Number of sigma calls:        5
                       o<<<<< (aa):             0.00
                       o<<<<< (bb):             0.00
                       o<<<<< (ab):             0.00
                       o<<<<< (total)           0.00
                       o<<<<< (aa) ff           0.00
                       o<<<<< (aa) gop          0.00
                       o<<<<< (aa) dot          0.00
                       o<<<<< (ab) str          0.00
                       o<<<<< (ab) gath         0.00
                       o<<<<< (ab) dotab        0.00
                       o<<<<< (ab) scat         0.00
                       o<<<<< (ab) sync         0.00
                       o<<<<< Density           0.00
                       o<<<<< Density one       0.00
                       o<<<<< Density two       0.00
                       o<<<<< Density ab        0.00
                       o<<<<< Spin adapt        0.00
                       o<<<<< Symm adapt        0.00

                       o<<<<< (ab) max sync:      0.00

           >>>| Valence CI:            -16.073815483401
           >>>| MCSCF energy:          -14.873815483401
           >>>| Gradient norm:          0.192805169D-03
     --- Warning:   14 Hessian diagonals < 0.05 ---
     --- Conjugacy reset ---

                              ----- Line search ------

        step       energy         lsg     num-lsg   num-lsh   lsrat    time
      ------- ---------------- --------- --------- --------- ------- --------
       0.0000     -14.87381548 -9.81D-08  0.00D+00  0.00D+00 0.0D+00      1.4

          Number of sigma calls:        5
                       o<<<<< (aa):             0.00
                       o<<<<< (bb):             0.00
                       o<<<<< (ab):             0.00
                       o<<<<< (total)           0.00
                       o<<<<< (aa) ff           0.00
                       o<<<<< (aa) gop          0.00
                       o<<<<< (aa) dot          0.00
                       o<<<<< (ab) str          0.00
                       o<<<<< (ab) gath         0.00
                       o<<<<< (ab) dotab        0.00
                       o<<<<< (ab) scat         0.00
                       o<<<<< (ab) sync         0.00
                       o<<<<< Density           0.00
                       o<<<<< Density one       0.00
                       o<<<<< Density two       0.00
                       o<<<<< Density ab        0.00
                       o<<<<< Spin adapt        0.00
                       o<<<<< Symm adapt        0.00

                       o<<<<< (ab) max sync:      0.00
       1.0000     -14.87381554 -1.61D-08 -1.61D-08  8.20D-08 1.6D-01      1.5

          Number of sigma calls:        4
                       o<<<<< (aa):             0.00
                       o<<<<< (bb):             0.00
                       o<<<<< (ab):             0.00
                       o<<<<< (total)           0.00
                       o<<<<< (aa) ff           0.00
                       o<<<<< (aa) gop          0.00
                       o<<<<< (aa) dot          0.00
                       o<<<<< (ab) str          0.00
                       o<<<<< (ab) gath         0.00
                       o<<<<< (ab) dotab        0.00
                       o<<<<< (ab) scat         0.00
                       o<<<<< (ab) sync         0.00
                       o<<<<< Density           0.00
                       o<<<<< Density one       0.00
                       o<<<<< Density two       0.00
                       o<<<<< Density ab        0.00
                       o<<<<< Spin adapt        0.00
                       o<<<<< Symm adapt        0.00

                       o<<<<< (ab) max sync:      0.00
       1.1967     -14.87381554  1.37D-11  1.34D-11  8.20D-08 1.4D-04      1.6



          %%%%% MacroIteration   3 %%%%%


          Number of sigma calls:        1
                       o<<<<< (aa):             0.00
                       o<<<<< (bb):             0.00
                       o<<<<< (ab):             0.00
                       o<<<<< (total)           0.00
                       o<<<<< (aa) ff           0.00
                       o<<<<< (aa) gop          0.00
                       o<<<<< (aa) dot          0.00
                       o<<<<< (ab) str          0.00
                       o<<<<< (ab) gath         0.00
                       o<<<<< (ab) dotab        0.00
                       o<<<<< (ab) scat         0.00
                       o<<<<< (ab) sync         0.00
                       o<<<<< Density           0.00
                       o<<<<< Density one       0.00
                       o<<<<< Density two       0.00
                       o<<<<< Density ab        0.00
                       o<<<<< Spin adapt        0.00
                       o<<<<< Symm adapt        0.00

                       o<<<<< (ab) max sync:      0.00

           >>>| Valence CI:            -16.073815542099
           >>>| MCSCF energy:          -14.873815542098
           >>>| Gradient norm:          0.127206598D-04




     ==============================
            MCSCF Converged
     ==============================



          Canonical Eigenvalues

              1      
    1   -2.4743
    2   -2.4743
    3   -0.1548
    4   -0.0371
    5    0.0262
    6    0.0262
    7    0.0347
    8    0.0475
    9    0.0488
   10    0.0488
   11    0.1013
   12    0.1117
   13    0.1137
   14    0.1137
   15    0.1346
   16    0.1346
   17    0.1435
   18    0.1647
   19    0.2159
   20    0.2159
   21    0.2199
   22    0.2199
   23    0.2517
   24    0.2517
   25    0.2804
   26    0.3127
   27    0.3127
   28    0.3586
   29    0.3686
   30    0.3686
   31    0.3820
   32    0.3820
   33    0.3823
   34    0.3989
   35    0.4224
   36    0.4892
   37    0.6707
   38    0.6919
   39    0.6919
   40    0.7106
   41    0.7106
   42    0.7406
   43    0.7406
   44    0.7421
   45    0.7421
   46    0.7505
   47    0.7505
   48    0.7570
   49    0.7570
   50    0.7611
   51    0.7611
   52    0.7651
   53    0.7651
   54    0.8035
   55    0.8046
   56    0.8046
   57    0.8788
   58    0.9307
   59    0.9307
   60    0.9312
   61    0.9312
   62    0.9370
   63    0.9481
   64    0.9481
   65    0.9555
   66    1.1653
   67    1.3671
   68    1.3944
   69    6.3673
   70    6.3716


          Converged CI vector

   Index           Coefficient          Config. Occupation
         1          0.91935152          1  2  3  1  2  3
         6         -0.39343308          1  2  4  1  2  4

          Number of sigma calls:        1
                       o<<<<< (aa):             0.00
                       o<<<<< (bb):             0.00
                       o<<<<< (ab):             0.00
                       o<<<<< (total)           0.00
                       o<<<<< (aa) ff           0.00
                       o<<<<< (aa) gop          0.00
                       o<<<<< (aa) dot          0.00
                       o<<<<< (ab) str          0.00
                       o<<<<< (ab) gath         0.00
                       o<<<<< (ab) dotab        0.00
                       o<<<<< (ab) scat         0.00
                       o<<<<< (ab) sync         0.00
                       o<<<<< Density           0.00
                       o<<<<< Density one       0.00
                       o<<<<< Density two       0.00
                       o<<<<< Density ab        0.00
                       o<<<<< Spin adapt        0.00
                       o<<<<< Symm adapt        0.00

                       o<<<<< (ab) max sync:      0.00



          Natural orbital occupation numbers

              1      
    1    2.0000
    2    2.0000
    3    1.6904
    4    0.3096


          Number of sigma calls:        5
                       o<<<<< (aa):             0.00
                       o<<<<< (bb):             0.00
                       o<<<<< (ab):             0.00
                       o<<<<< (total)           0.00
                       o<<<<< (aa) ff           0.00
                       o<<<<< (aa) gop          0.00
                       o<<<<< (aa) dot          0.00
                       o<<<<< (ab) str          0.00
                       o<<<<< (ab) gath         0.00
                       o<<<<< (ab) dotab        0.00
                       o<<<<< (ab) scat         0.00
                       o<<<<< (ab) sync         0.00
                       o<<<<< Density           0.00
                       o<<<<< Density one       0.00
                       o<<<<< Density two       0.00
                       o<<<<< Density ab        0.00
                       o<<<<< Spin adapt        0.00
                       o<<<<< Symm adapt        0.00

                       o<<<<< (ab) max sync:      0.00


       Final MCSCF results 
       ------------------- 

       Total MCSCF energy =    -14.873815542099
            Gradient norm =      1.3D-05

    CPU time for solution =      1.3s
   Wall time for solution =      1.3s



                        Analysis of MCSCF natural orbitals
                        ----------------------------------

 Vector    1  Occ=1.999998D+00  E=-2.474264D+00  Symmetry=a
              MO Center=  7.0D-11, -2.0D-08,  1.0D-10, r^2= 4.1D+00
   Bfn.  Coefficient  Atom+Function         Bfn.  Coefficient  Atom+Function  
  ----- ------------  ---------------      ----- ------------  ---------------
     1      0.704656  1 Li s                 36      0.704656  2 Li s          

 Vector    2  Occ=1.999998D+00  E=-2.474261D+00  Symmetry=a
              MO Center=  5.1D-11,  2.0D-08,  7.7D-11, r^2= 4.1D+00
   Bfn.  Coefficient  Atom+Function         Bfn.  Coefficient  Atom+Function  
  ----- ------------  ---------------      ----- ------------  ---------------
     1      0.704576  1 Li s                 36     -0.704576  2 Li s          

 Vector    3  Occ=1.690419D+00  E=-1.548389D-01  Symmetry=a
              MO Center=  1.4D-07, -7.9D-12,  2.1D-07, r^2= 7.7D+00
   Bfn.  Coefficient  Atom+Function         Bfn.  Coefficient  Atom+Function  
  ----- ------------  ---------------      ----- ------------  ---------------
     4      0.342539  1 Li s                 39      0.342539  2 Li s          
     3      0.330947  1 Li s                 38      0.330947  2 Li s          
     2      0.176768  1 Li s                 37      0.176768  2 Li s          

 Vector    4  Occ=3.095852D-01  E=-3.714207D-02  Symmetry=a
              MO Center= -7.2D-09, -2.5D-11, -1.1D-08, r^2= 9.4D+00
   Bfn.  Coefficient  Atom+Function         Bfn.  Coefficient  Atom+Function  
  ----- ------------  ---------------      ----- ------------  ---------------
     3      0.551294  1 Li s                 38     -0.551294  2 Li s          
     4      0.398952  1 Li s                 39     -0.398952  2 Li s          
     2      0.227209  1 Li s                 37     -0.227209  2 Li s          

 Vector    5  Occ=0.000000D+00  E= 2.624154D-02  Symmetry=a
              MO Center= -8.0D-07,  3.0D-11, -1.6D-06, r^2= 1.9D+01
   Bfn.  Coefficient  Atom+Function         Bfn.  Coefficient  Atom+Function  
  ----- ------------  ---------------      ----- ------------  ---------------
    13      0.525583  1 Li pz                48      0.525583  2 Li pz         
    11      0.253420  1 Li px                46      0.253420  2 Li px         

 Vector    6  Occ=0.000000D+00  E= 2.624154D-02  Symmetry=a
              MO Center= -3.1D-07,  3.0D-11, -4.4D-08, r^2= 1.9D+01
   Bfn.  Coefficient  Atom+Function         Bfn.  Coefficient  Atom+Function  
  ----- ------------  ---------------      ----- ------------  ---------------
    11      0.525583  1 Li px                46      0.525583  2 Li px         
    13     -0.253420  1 Li pz                48     -0.253420  2 Li pz         

 Vector    7  Occ=0.000000D+00  E= 3.469841D-02  Symmetry=a
              MO Center= -4.8D-08,  2.9D-10, -7.1D-08, r^2= 2.6D+01
   Bfn.  Coefficient  Atom+Function         Bfn.  Coefficient  Atom+Function  
  ----- ------------  ---------------      ----- ------------  ---------------
    12      0.760039  1 Li py                47     -0.760039  2 Li py         
     4     -0.642897  1 Li s                 39     -0.642897  2 Li s          
     3      0.233976  1 Li s                 38      0.233976  2 Li s          

 Vector    8  Occ=0.000000D+00  E= 4.745178D-02  Symmetry=a
              MO Center= -5.3D-06, -2.7D-10, -7.9D-06, r^2= 4.3D+01
   Bfn.  Coefficient  Atom+Function         Bfn.  Coefficient  Atom+Function  
  ----- ------------  ---------------      ----- ------------  ---------------
     4      2.267334  1 Li s                 39     -2.267334  2 Li s          
    12      1.892701  1 Li py                47      1.892701  2 Li py         
     9     -0.336148  1 Li py                44     -0.336148  2 Li py         
     3     -0.312596  1 Li s                 38      0.312596  2 Li s          

 Vector    9  Occ=0.000000D+00  E= 4.882231D-02  Symmetry=a
              MO Center= -1.9D-06, -2.9D-11,  2.5D-06, r^2= 2.8D+01
   Bfn.  Coefficient  Atom+Function         Bfn.  Coefficient  Atom+Function  
  ----- ------------  ---------------      ----- ------------  ---------------
    13      0.990398  1 Li pz                48     -0.990398  2 Li pz         
    11     -0.680045  1 Li px                46      0.680045  2 Li px         
    10     -0.189323  1 Li pz                45      0.189323  2 Li pz         

 Vector   10  Occ=0.000000D+00  E= 4.882231D-02  Symmetry=a
              MO Center=  6.6D-06, -2.9D-11,  4.5D-06, r^2= 2.8D+01
   Bfn.  Coefficient  Atom+Function         Bfn.  Coefficient  Atom+Function  
  ----- ------------  ---------------      ----- ------------  ---------------
    11      0.990398  1 Li px                46     -0.990398  2 Li px         
    13      0.680045  1 Li pz                48     -0.680045  2 Li pz         
     8     -0.189323  1 Li px                43      0.189323  2 Li px         

 Vector   11  Occ=0.000000D+00  E= 1.013109D-01  Symmetry=a
              MO Center= -5.6D-07,  4.4D-11, -8.4D-07, r^2= 1.7D+01
   Bfn.  Coefficient  Atom+Function         Bfn.  Coefficient  Atom+Function  
  ----- ------------  ---------------      ----- ------------  ---------------
     4     -1.162434  1 Li s                 39     -1.162434  2 Li s          
     3      1.123750  1 Li s                 38      1.123750  2 Li s          
    12     -0.814616  1 Li py                47      0.814616  2 Li py         
     9      0.712396  1 Li py                44     -0.712396  2 Li py         
    20      0.278137  1 Li dxx               25      0.278137  1 Li dzz        

 Vector   12  Occ=0.000000D+00  E= 1.116989D-01  Symmetry=a
              MO Center= -2.5D-06,  3.6D-11, -3.7D-06, r^2= 2.3D+01
   Bfn.  Coefficient  Atom+Function         Bfn.  Coefficient  Atom+Function  
  ----- ------------  ---------------      ----- ------------  ---------------
     4      1.292070  1 Li s                 39      1.292070  2 Li s          
     3     -0.994365  1 Li s                 38     -0.994365  2 Li s          
     9      0.871518  1 Li py                44     -0.871518  2 Li py         
    12     -0.703498  1 Li py                47      0.703498  2 Li py         
    23     -0.308340  1 Li dyy               58     -0.308340  2 Li dyy        

 Vector   13  Occ=0.000000D+00  E= 1.137068D-01  Symmetry=a
              MO Center= -1.4D-06,  4.3D-11,  1.9D-06, r^2= 1.8D+01
   Bfn.  Coefficient  Atom+Function         Bfn.  Coefficient  Atom+Function  
  ----- ------------  ---------------      ----- ------------  ---------------
    10      0.986581  1 Li pz                45      0.986581  2 Li pz         
     8     -0.656911  1 Li px                43     -0.656911  2 Li px         
    13     -0.632237  1 Li pz                48     -0.632237  2 Li pz         
    11      0.420972  1 Li px                46      0.420972  2 Li px         

 Vector   14  Occ=0.000000D+00  E= 1.137068D-01  Symmetry=a
              MO Center=  4.8D-06,  4.3D-11,  3.1D-06, r^2= 1.8D+01
   Bfn.  Coefficient  Atom+Function         Bfn.  Coefficient  Atom+Function  
  ----- ------------  ---------------      ----- ------------  ---------------
     8      0.986581  1 Li px                43      0.986581  2 Li px         
    10      0.656911  1 Li pz                45      0.656911  2 Li pz         
    11     -0.632237  1 Li px                46     -0.632237  2 Li px         
    13     -0.420972  1 Li pz                48     -0.420972  2 Li pz         


 Wrote Lagrangian and 1- and 2-particle density matrices to ./Li2.mcpdm


     Multipole analysis of the density
     ---------------------------------

     L   x y z        total        nuclear
     -   - - -        -----        -------
     0   0 0 0     -0.000000      6.000000

     1   1 0 0     -0.000000      0.000000
     1   0 1 0      0.000000      0.000000
     1   0 0 1     -0.000001      0.000000

     2   2 0 0    -12.588319      0.000000
     2   1 1 0     -0.000000      0.000000
     2   1 0 1     -0.000000      0.000000
     2   0 2 0     -5.295668     84.375000
     2   0 1 1      0.000000      0.000000
     2   0 0 2    -12.588319      0.000000


  Mulliken analysis of the total density
  --------------------------------------

    Atom       Charge   Shell Charges
 -----------   ------   -------------------------------------------------------
    1 Li   3     3.00   1.99 -0.01  0.48  0.53  0.00  0.01  0.00  0.00 -0.01 -0.00
    2 Li   3     3.00   1.99 -0.01  0.48  0.53  0.00  0.01  0.00  0.00 -0.01 -0.00

    Mulliken analysis of the active space density
    ---------------------------------------------

    Atom       Charge   Shell Charges
 -----------   ------   -------------------------------------------------------
    1 Li   3     3.00   1.99 -0.01  0.48  0.53  0.00  0.01  0.00  0.00 -0.01 -0.00
    2 Li   3     3.00   1.99 -0.01  0.48  0.53  0.00  0.01  0.00  0.00 -0.01 -0.00

 Parallel integral file used      20 records with       0 large values


 Task  times  cpu:        1.4s     wall:        1.4s


                                NWChem Input Module
                                -------------------


                                 NWChem SCF Module
                                 -----------------


                                        Li2



  ao basis        = "ao basis"
  functions       =    70
  atoms           =     2
  closed shells   =     3
  open shells     =     0
  charge          =   0.00
  wavefunction    = RHF 
  input vectors   = ./Li2.mos
  output vectors  = ./Li2-7.5.mos
  use symmetry    = F
  symmetry adapt  = F


 Summary of "ao basis" -> "ao basis" (cartesian)
 ------------------------------------------------------------------------------
       Tag                 Description            Shells   Functions and Types
 ---------------- ------------------------------  ------  ---------------------
 Li                         cc-pVTZ                 10       35   4s3p2d1f



 Forming initial guess at       1.4s


 Loading old vectors from job with title :

Li2


 Starting SCF solution at       1.4s



 ----------------------------------------------
         Quadratically convergent ROHF

 Convergence threshold     :          1.000E-04
 Maximum no. of iterations :           30
 Final Fock-matrix accuracy:          1.000E-07
 ----------------------------------------------


 Integral file          = ./Li2.aoints.0
 Record size in doubles =  65536        No. of integs per rec  =  43688
 Max. records in memory =     99        Max. records in file   = 280106
 No. of bits per label  =      8        No. of bits per value  =     64


 #quartets = 2.205D+04 #integrals = 8.579D+05 #direct =  0.0% #cached =100.0%



       Final RHF  results 
       ------------------ 

         Total SCF energy =    -14.849859022570
      One-electron energy =    -21.875432503201
      Two-electron energy =      5.825573480631
 Nuclear repulsion energy =      1.200000000000

        Time for solution =      0.1s


             Final eigenvalues
             -----------------

              1      
    1   -2.4743
    2   -2.4743
    3   -0.1548
    4   -0.0371
    5    0.0262
    6    0.0262
    7    0.0347
    8    0.0475
    9    0.0488
   10    0.0488
   11    0.1013
   12    0.1117
   13    0.1137

                       ROHF Final Molecular Orbital Analysis
                       -------------------------------------

 Vector    2  Occ=2.000000D+00  E=-2.474261D+00
              MO Center=  5.1D-11,  2.0D-08,  7.7D-11, r^2= 4.1D+00
   Bfn.  Coefficient  Atom+Function         Bfn.  Coefficient  Atom+Function  
  ----- ------------  ---------------      ----- ------------  ---------------
     1      0.704576  1 Li s                 36     -0.704576  2 Li s          

 Vector    3  Occ=2.000000D+00  E=-1.548389D-01
              MO Center=  1.4D-07, -7.9D-12,  2.1D-07, r^2= 7.7D+00
   Bfn.  Coefficient  Atom+Function         Bfn.  Coefficient  Atom+Function  
  ----- ------------  ---------------      ----- ------------  ---------------
     4      0.342539  1 Li s                 39      0.342539  2 Li s          
     3      0.330947  1 Li s                 38      0.330947  2 Li s          
     2      0.176768  1 Li s                 37      0.176768  2 Li s          

 Vector    4  Occ=0.000000D+00  E=-3.714207D-02
              MO Center= -7.2D-09, -2.5D-11, -1.1D-08, r^2= 9.4D+00
   Bfn.  Coefficient  Atom+Function         Bfn.  Coefficient  Atom+Function  
  ----- ------------  ---------------      ----- ------------  ---------------
     3      0.551294  1 Li s                 38     -0.551294  2 Li s          
     4      0.398952  1 Li s                 39     -0.398952  2 Li s          
     2      0.227209  1 Li s                 37     -0.227209  2 Li s          

 Vector    5  Occ=0.000000D+00  E= 2.624154D-02
              MO Center= -8.0D-07,  3.0D-11, -1.6D-06, r^2= 1.9D+01
   Bfn.  Coefficient  Atom+Function         Bfn.  Coefficient  Atom+Function  
  ----- ------------  ---------------      ----- ------------  ---------------
    13      0.525583  1 Li pz                48      0.525583  2 Li pz         
    11      0.253420  1 Li px                46      0.253420  2 Li px         

 Vector    6  Occ=0.000000D+00  E= 2.624154D-02
              MO Center= -3.1D-07,  3.0D-11, -4.4D-08, r^2= 1.9D+01
   Bfn.  Coefficient  Atom+Function         Bfn.  Coefficient  Atom+Function  
  ----- ------------  ---------------      ----- ------------  ---------------
    11      0.525583  1 Li px                46      0.525583  2 Li px         
    13     -0.253420  1 Li pz                48     -0.253420  2 Li pz         

 Vector    7  Occ=0.000000D+00  E= 3.469841D-02
              MO Center= -4.8D-08,  2.9D-10, -7.1D-08, r^2= 2.6D+01
   Bfn.  Coefficient  Atom+Function         Bfn.  Coefficient  Atom+Function  
  ----- ------------  ---------------      ----- ------------  ---------------
    12      0.760039  1 Li py                47     -0.760039  2 Li py         
     4     -0.642897  1 Li s                 39     -0.642897  2 Li s          
     3      0.233976  1 Li s                 38      0.233976  2 Li s          

 Vector    8  Occ=0.000000D+00  E= 4.745178D-02
              MO Center= -5.3D-06, -2.7D-10, -7.9D-06, r^2= 4.3D+01
   Bfn.  Coefficient  Atom+Function         Bfn.  Coefficient  Atom+Function  
  ----- ------------  ---------------      ----- ------------  ---------------
     4      2.267334  1 Li s                 39     -2.267334  2 Li s          
    12      1.892701  1 Li py                47      1.892701  2 Li py         
     9     -0.336148  1 Li py                44     -0.336148  2 Li py         
     3     -0.312596  1 Li s                 38      0.312596  2 Li s          

 Vector    9  Occ=0.000000D+00  E= 4.882231D-02
              MO Center= -1.9D-06, -2.9D-11,  2.5D-06, r^2= 2.8D+01
   Bfn.  Coefficient  Atom+Function         Bfn.  Coefficient  Atom+Function  
  ----- ------------  ---------------      ----- ------------  ---------------
    13      0.990398  1 Li pz                48     -0.990398  2 Li pz         
    11     -0.680045  1 Li px                46      0.680045  2 Li px         
    10     -0.189323  1 Li pz                45      0.189323  2 Li pz         

 Vector   10  Occ=0.000000D+00  E= 4.882231D-02
              MO Center=  6.6D-06, -2.9D-11,  4.5D-06, r^2= 2.8D+01
   Bfn.  Coefficient  Atom+Function         Bfn.  Coefficient  Atom+Function  
  ----- ------------  ---------------      ----- ------------  ---------------
    11      0.990398  1 Li px                46     -0.990398  2 Li px         
    13      0.680045  1 Li pz                48     -0.680045  2 Li pz         
     8     -0.189323  1 Li px                43      0.189323  2 Li px         

 Vector   11  Occ=0.000000D+00  E= 1.013109D-01
              MO Center= -5.6D-07,  4.4D-11, -8.4D-07, r^2= 1.7D+01
   Bfn.  Coefficient  Atom+Function         Bfn.  Coefficient  Atom+Function  
  ----- ------------  ---------------      ----- ------------  ---------------
     4     -1.162434  1 Li s                 39     -1.162434  2 Li s          
     3      1.123750  1 Li s                 38      1.123750  2 Li s          
    12     -0.814616  1 Li py                47      0.814616  2 Li py         
     9      0.712396  1 Li py                44     -0.712396  2 Li py         
    20      0.278137  1 Li dxx               25      0.278137  1 Li dzz        

 Vector   12  Occ=0.000000D+00  E= 1.116989D-01
              MO Center= -2.5D-06,  3.6D-11, -3.7D-06, r^2= 2.3D+01
   Bfn.  Coefficient  Atom+Function         Bfn.  Coefficient  Atom+Function  
  ----- ------------  ---------------      ----- ------------  ---------------
     4      1.292070  1 Li s                 39      1.292070  2 Li s          
     3     -0.994365  1 Li s                 38     -0.994365  2 Li s          
     9      0.871518  1 Li py                44     -0.871518  2 Li py         
    12     -0.703498  1 Li py                47      0.703498  2 Li py         
    23     -0.308340  1 Li dyy               58     -0.308340  2 Li dyy        

 Vector   13  Occ=0.000000D+00  E= 1.137068D-01
              MO Center= -1.4D-06,  4.3D-11,  1.9D-06, r^2= 1.8D+01
   Bfn.  Coefficient  Atom+Function         Bfn.  Coefficient  Atom+Function  
  ----- ------------  ---------------      ----- ------------  ---------------
    10      0.986581  1 Li pz                45      0.986581  2 Li pz         
     8     -0.656911  1 Li px                43     -0.656911  2 Li px         
    13     -0.632237  1 Li pz                48     -0.632237  2 Li pz         
    11      0.420972  1 Li px                46      0.420972  2 Li px         

 Vector   14  Occ=0.000000D+00  E= 1.137068D-01
              MO Center=  4.8D-06,  4.3D-11,  3.1D-06, r^2= 1.8D+01
   Bfn.  Coefficient  Atom+Function         Bfn.  Coefficient  Atom+Function  
  ----- ------------  ---------------      ----- ------------  ---------------
     8      0.986581  1 Li px                43      0.986581  2 Li px         
    10      0.656911  1 Li pz                45      0.656911  2 Li pz         
    11     -0.632237  1 Li px                46     -0.632237  2 Li px         
    13     -0.420972  1 Li pz                48     -0.420972  2 Li pz         

 Vector   15  Occ=0.000000D+00  E= 1.345895D-01
              MO Center= -1.3D-07, -4.0D-11, -2.0D-07, r^2= 1.9D+01
   Bfn.  Coefficient  Atom+Function         Bfn.  Coefficient  Atom+Function  
  ----- ------------  ---------------      ----- ------------  ---------------
    10      1.068035  1 Li pz                45     -1.068035  2 Li pz         
    13     -0.930473  1 Li pz                48      0.930473  2 Li pz         
     8     -0.755615  1 Li px                43      0.755615  2 Li px         
    11      0.658292  1 Li px                46     -0.658292  2 Li px         

 Vector   16  Occ=0.000000D+00  E= 1.345895D-01
              MO Center= -1.5D-07, -4.0D-11, -2.0D-07, r^2= 1.9D+01
   Bfn.  Coefficient  Atom+Function         Bfn.  Coefficient  Atom+Function  
  ----- ------------  ---------------      ----- ------------  ---------------
     8      1.068035  1 Li px                43     -1.068035  2 Li px         
    11     -0.930473  1 Li px                46      0.930473  2 Li px         
    10      0.755615  1 Li pz                45     -0.755615  2 Li pz         
    13     -0.658292  1 Li pz                48      0.658292  2 Li pz         

 Vector   17  Occ=0.000000D+00  E= 1.435029D-01
              MO Center=  3.0D-07, -2.0D-11,  4.5D-07, r^2= 2.0D+01
   Bfn.  Coefficient  Atom+Function         Bfn.  Coefficient  Atom+Function  
  ----- ------------  ---------------      ----- ------------  ---------------
     4      4.663172  1 Li s                 39     -4.663172  2 Li s          
     3     -1.827449  1 Li s                 38      1.827449  2 Li s          
     9      1.114454  1 Li py                44      1.114454  2 Li py         
    12      1.029674  1 Li py                47      1.029674  2 Li py         
    20     -0.435911  1 Li dxx               25     -0.435911  1 Li dzz        

 Vector   18  Occ=0.000000D+00  E= 1.646823D-01
              MO Center= -1.8D-07, -4.4D-11, -2.6D-07, r^2= 2.1D+01
   Bfn.  Coefficient  Atom+Function         Bfn.  Coefficient  Atom+Function  
  ----- ------------  ---------------      ----- ------------  ---------------
     4      3.558210  1 Li s                 39     -3.558210  2 Li s          
    12      1.594192  1 Li py                47      1.594192  2 Li py         
     3     -1.551685  1 Li s                 38      1.551685  2 Li s          
     9     -1.106739  1 Li py                44     -1.106739  2 Li py         
    20     -0.416453  1 Li dxx               25     -0.416453  1 Li dzz        

 Vector   19  Occ=0.000000D+00  E= 2.158954D-01
              MO Center=  1.4D-07,  2.5D-11,  2.0D-07, r^2= 1.0D+01
   Bfn.  Coefficient  Atom+Function         Bfn.  Coefficient  Atom+Function  
  ----- ------------  ---------------      ----- ------------  ---------------
    22      1.343364  1 Li dxz               57      1.343364  2 Li dxz        
    16     -0.277435  1 Li dxz               51     -0.277435  2 Li dxz        

 Vector   20  Occ=0.000000D+00  E= 2.158954D-01
              MO Center=  1.4D-07,  2.5D-11,  2.0D-07, r^2= 1.0D+01
   Bfn.  Coefficient  Atom+Function         Bfn.  Coefficient  Atom+Function  
  ----- ------------  ---------------      ----- ------------  ---------------
    20      0.671682  1 Li dxx               25     -0.671682  1 Li dzz        
    55      0.671682  2 Li dxx               60     -0.671682  2 Li dzz        

 Vector   21  Occ=0.000000D+00  E= 2.199350D-01
              MO Center= -8.9D-08,  7.5D-12,  1.3D-08, r^2= 1.1D+01
   Bfn.  Coefficient  Atom+Function         Bfn.  Coefficient  Atom+Function  
  ----- ------------  ---------------      ----- ------------  ---------------
    24      1.175767  1 Li dyz               59     -1.175767  2 Li dyz        
    21     -0.314629  1 Li dxy               56      0.314629  2 Li dxy        
    10     -0.247912  1 Li pz                45     -0.247912  2 Li pz         
    18     -0.212900  1 Li dyz               53      0.212900  2 Li dyz        

 Vector   22  Occ=0.000000D+00  E= 2.199350D-01
              MO Center=  5.8D-08,  7.5D-12, -5.9D-08, r^2= 1.1D+01
   Bfn.  Coefficient  Atom+Function         Bfn.  Coefficient  Atom+Function  
  ----- ------------  ---------------      ----- ------------  ---------------
    21      1.175767  1 Li dxy               56     -1.175767  2 Li dxy        
    24      0.314629  1 Li dyz               59     -0.314629  2 Li dyz        
     8     -0.247912  1 Li px                43     -0.247912  2 Li px         
    15     -0.212900  1 Li dxy               50      0.212900  2 Li dxy        

 Vector   23  Occ=0.000000D+00  E= 2.517153D-01
              MO Center=  8.6D-08, -2.4D-11,  1.3D-07, r^2= 1.2D+01
   Bfn.  Coefficient  Atom+Function         Bfn.  Coefficient  Atom+Function  
  ----- ------------  ---------------      ----- ------------  ---------------
    22      1.500665  1 Li dxz               57     -1.500665  2 Li dxz        
    16     -0.285379  1 Li dxz               51      0.285379  2 Li dxz        

 Vector   24  Occ=0.000000D+00  E= 2.517153D-01
              MO Center=  8.6D-08, -2.4D-11,  1.3D-07, r^2= 1.2D+01
   Bfn.  Coefficient  Atom+Function         Bfn.  Coefficient  Atom+Function  
  ----- ------------  ---------------      ----- ------------  ---------------
    20      0.750333  1 Li dxx               25     -0.750333  1 Li dzz        
    55     -0.750333  2 Li dxx               60      0.750333  2 Li dzz        

 Vector   25  Occ=0.000000D+00  E= 2.803520D-01
              MO Center=  1.2D-08,  1.2D-11,  1.7D-08, r^2= 1.4D+01
   Bfn.  Coefficient  Atom+Function         Bfn.  Coefficient  Atom+Function  
  ----- ------------  ---------------      ----- ------------  ---------------
     9      0.705113  1 Li py                44     -0.705113  2 Li py         
    23     -0.673304  1 Li dyy               58     -0.673304  2 Li dyy        
    12     -0.571409  1 Li py                47      0.571409  2 Li py         
    20      0.559370  1 Li dxx               25      0.559370  1 Li dzz        
    55      0.559370  2 Li dxx               60      0.559370  2 Li dzz        

 Vector   26  Occ=0.000000D+00  E= 3.127048D-01
              MO Center= -4.3D-08, -8.7D-12,  2.7D-08, r^2= 1.3D+01
   Bfn.  Coefficient  Atom+Function         Bfn.  Coefficient  Atom+Function  
  ----- ------------  ---------------      ----- ------------  ---------------
    24      1.779547  1 Li dyz               59      1.779547  2 Li dyz        
    21     -0.747432  1 Li dxy               56     -0.747432  2 Li dxy        
    18     -0.315256  1 Li dyz               53     -0.315256  2 Li dyz        
    13      0.300720  1 Li pz                48     -0.300720  2 Li pz         

 Vector   27  Occ=0.000000D+00  E= 3.127048D-01
              MO Center=  6.7D-08, -8.6D-12,  7.1D-09, r^2= 1.3D+01
   Bfn.  Coefficient  Atom+Function         Bfn.  Coefficient  Atom+Function  
  ----- ------------  ---------------      ----- ------------  ---------------
    21      1.779547  1 Li dxy               56      1.779547  2 Li dxy        
    24      0.747432  1 Li dyz               59      0.747432  2 Li dyz        
    15     -0.315256  1 Li dxy               50     -0.315256  2 Li dxy        
    11      0.300720  1 Li px                46     -0.300720  2 Li px         

 Vector   28  Occ=0.000000D+00  E= 3.585843D-01
              MO Center= -7.1D-08,  2.5D-11, -1.1D-07, r^2= 1.2D+01
   Bfn.  Coefficient  Atom+Function         Bfn.  Coefficient  Atom+Function  
  ----- ------------  ---------------      ----- ------------  ---------------
     4      1.068634  1 Li s                 39     -1.068634  2 Li s          
     9     -0.910239  1 Li py                44     -0.910239  2 Li py         
    12      0.724088  1 Li py                47      0.724088  2 Li py         
     6      0.582528  1 Li py                41      0.582528  2 Li py         
    23      0.492583  1 Li dyy               58     -0.492583  2 Li dyy        

 Vector   29  Occ=0.000000D+00  E= 3.685853D-01
              MO Center=  3.2D-07,  7.4D-11, -1.1D-06, r^2= 1.1D+01
   Bfn.  Coefficient  Atom+Function         Bfn.  Coefficient  Atom+Function  
  ----- ------------  ---------------      ----- ------------  ---------------
    10      1.381797  1 Li pz                45      1.381797  2 Li pz         
     7     -0.606646  1 Li pz                42     -0.606646  2 Li pz         
    33     -0.544281  1 Li fyyz              68     -0.544281  2 Li fyyz       
    28     -0.484632  1 Li fxxz              35     -0.484632  1 Li fzzz       
    63     -0.484632  2 Li fxxz              70     -0.484632  2 Li fzzz       

 Vector   30  Occ=0.000000D+00  E= 3.685853D-01
              MO Center= -1.4D-06,  7.3D-11, -4.9D-07, r^2= 1.1D+01
   Bfn.  Coefficient  Atom+Function         Bfn.  Coefficient  Atom+Function  
  ----- ------------  ---------------      ----- ------------  ---------------
     8      1.381797  1 Li px                43      1.381797  2 Li px         
     5     -0.606646  1 Li px                40     -0.606646  2 Li px         
    29     -0.544281  1 Li fxyy              64     -0.544281  2 Li fxyy       
    26     -0.484632  1 Li fxxx              31     -0.484632  1 Li fxzz       
    61     -0.484632  2 Li fxxx              66     -0.484632  2 Li fxzz       

 Vector   31  Occ=0.000000D+00  E= 3.820323D-01
              MO Center=  1.8D-07, -7.4D-11, -5.1D-07, r^2= 1.2D+01
   Bfn.  Coefficient  Atom+Function         Bfn.  Coefficient  Atom+Function  
  ----- ------------  ---------------      ----- ------------  ---------------
    10      1.694866  1 Li pz                45     -1.694866  2 Li pz         
    13     -0.667582  1 Li pz                48      0.667582  2 Li pz         
     8     -0.644314  1 Li px                43      0.644314  2 Li px         
     7     -0.614612  1 Li pz                42      0.614612  2 Li pz         
    33     -0.524469  1 Li fyyz              68      0.524469  2 Li fyyz       

 Vector   32  Occ=0.000000D+00  E= 3.820323D-01
              MO Center= -7.1D-07, -7.4D-11, -2.8D-07, r^2= 1.2D+01
   Bfn.  Coefficient  Atom+Function         Bfn.  Coefficient  Atom+Function  
  ----- ------------  ---------------      ----- ------------  ---------------
     8      1.694866  1 Li px                43     -1.694866  2 Li px         
    11     -0.667582  1 Li px                46      0.667582  2 Li px         
    10      0.644314  1 Li pz                45     -0.644314  2 Li pz         
     5     -0.614612  1 Li px                40      0.614612  2 Li px         
    29     -0.524469  1 Li fxyy              64      0.524469  2 Li fxyy       

 Vector   33  Occ=0.000000D+00  E= 3.822697D-01
              MO Center=  5.4D-07,  4.3D-11,  8.0D-07, r^2= 1.5D+01
   Bfn.  Coefficient  Atom+Function         Bfn.  Coefficient  Atom+Function  
  ----- ------------  ---------------      ----- ------------  ---------------
     9      1.282733  1 Li py                44     -1.282733  2 Li py         
     4      1.013750  1 Li s                 39      1.013750  2 Li s          
    20     -0.668754  1 Li dxx               25     -0.668754  1 Li dzz        
    55     -0.668754  2 Li dxx               60     -0.668754  2 Li dzz        
    32     -0.553704  1 Li fyyy              67      0.553704  2 Li fyyy       

 Vector   34  Occ=0.000000D+00  E= 3.988931D-01
              MO Center=  5.2D-07, -7.8D-11,  7.8D-07, r^2= 1.5D+01
   Bfn.  Coefficient  Atom+Function         Bfn.  Coefficient  Atom+Function  
  ----- ------------  ---------------      ----- ------------  ---------------
     4      4.137382  1 Li s                 39     -4.137382  2 Li s          
     9      3.485910  1 Li py                44      3.485910  2 Li py         
    23      1.594438  1 Li dyy               58     -1.594438  2 Li dyy        
    20     -1.169896  1 Li dxx               25     -1.169896  1 Li dzz        
    55      1.169896  2 Li dxx               60      1.169896  2 Li dzz        

 Vector   35  Occ=0.000000D+00  E= 4.224062D-01
              MO Center=  5.6D-07,  4.4D-12,  8.3D-07, r^2= 7.8D+00
   Bfn.  Coefficient  Atom+Function         Bfn.  Coefficient  Atom+Function  
  ----- ------------  ---------------      ----- ------------  ---------------
     4      1.018120  1 Li s                 39      1.018120  2 Li s          
    23     -0.870764  1 Li dyy               58     -0.870764  2 Li dyy        
     9     -0.769174  1 Li py                44      0.769174  2 Li py         
    20     -0.659242  1 Li dxx               25     -0.659242  1 Li dzz        
    55     -0.659242  2 Li dxx               60     -0.659242  2 Li dzz        

 Vector   36  Occ=0.000000D+00  E= 4.892175D-01
              MO Center=  2.2D-07, -7.9D-12,  3.3D-07, r^2= 1.2D+01
   Bfn.  Coefficient  Atom+Function         Bfn.  Coefficient  Atom+Function  
  ----- ------------  ---------------      ----- ------------  ---------------
     9      3.404221  1 Li py                44      3.404221  2 Li py         
    23      3.058120  1 Li dyy               58     -3.058120  2 Li dyy        
     4     -1.900117  1 Li s                 39      1.900117  2 Li s          
     3      1.043027  1 Li s                 38     -1.043027  2 Li s          
    12     -0.754289  1 Li py                47     -0.754289  2 Li py         

 Vector   37  Occ=0.000000D+00  E= 6.707044D-01
              MO Center= -8.4D-08,  6.0D-13, -1.2D-07, r^2= 6.4D+00
   Bfn.  Coefficient  Atom+Function         Bfn.  Coefficient  Atom+Function  
  ----- ------------  ---------------      ----- ------------  ---------------
    17      0.839452  1 Li dyy               52      0.839452  2 Li dyy        
    32      0.545559  1 Li fyyy              67     -0.545559  2 Li fyyy       
    23     -0.458765  1 Li dyy               58     -0.458765  2 Li dyy        
    27     -0.426465  1 Li fxxy              34     -0.426465  1 Li fyzz       
    62      0.426465  2 Li fxxy              69      0.426465  2 Li fyzz       


 center of mass
 --------------
 x =   0.00000000 y =   0.00000000 z =   0.00000000

 moments of inertia (a.u.)
 ------------------
         197.325000000000           0.000000000000           0.000000000000
           0.000000000000           0.000000000000           0.000000000000
           0.000000000000           0.000000000000         197.325000000000

  Mulliken analysis of the total density
  --------------------------------------

    Atom       Charge   Shell Charges
 -----------   ------   -------------------------------------------------------
    1 Li   3     3.00   1.99 -0.01  0.45  0.56  0.00  0.01  0.00  0.00 -0.01 -0.00
    2 Li   3     3.00   1.99 -0.01  0.45  0.56  0.00  0.01  0.00  0.00 -0.01 -0.00

       Multipole analysis of the density wrt the origin
       ------------------------------------------------

     L   x y z        total         open         nuclear
     -   - - -        -----         ----         -------
     0   0 0 0     -0.000000      0.000000      6.000000

     1   1 0 0     -0.000001      0.000000      0.000000
     1   0 1 0      0.000000      0.000000      0.000000
     1   0 0 1     -0.000001      0.000000      0.000000

     2   2 0 0    -12.851817      0.000000      0.000000
     2   1 1 0     -0.000000      0.000000      0.000000
     2   1 0 1      0.000000      0.000000      0.000000
     2   0 2 0     -2.881666      0.000000     84.375000
     2   0 1 1      0.000000      0.000000      0.000000
     2   0 0 2    -12.851817      0.000000      0.000000


 Parallel integral file used      20 records with       0 large values

                   NWChem Extensible Many-Electron Theory Module
                   ---------------------------------------------

              ======================================================
                   This portion of the program was automatically
                  generated by a Tensor Contraction Engine (TCE).
                  The development of this portion of the program
                 and TCE was supported by US Department of Energy,
                Office of Science, Office of Basic Energy Science.
                      TCE is a product of Battelle and PNNL.
              Please cite: S.Hirata, J.Phys.Chem.A 107, 9887 (2003).
              ======================================================

                                        Li2


            General Information
            -------------------
      Number of processors :     1
         Wavefunction type : Restricted Hartree-Fock
          No. of electrons :     6
           Alpha electrons :     3
            Beta electrons :     3
           No. of orbitals :   140
            Alpha orbitals :    70
             Beta orbitals :    70
        Alpha frozen cores :     0
         Beta frozen cores :     0
     Alpha frozen virtuals :     0
      Beta frozen virtuals :     0
         Spin multiplicity : singlet 
    Number of AO functions :    70
       Number of AO shells :    20
        Use of symmetry is : off
      Symmetry adaption is : off
         Schwarz screening : 0.10D-09

          Correlation Information
          -----------------------
          Calculation type : Coupled-cluster singles & doubles                           
   Perturbative correction : none                                                        
            Max iterations :      300
        Residual threshold : 0.10D-06
     T(0) DIIS level shift : 0.30D+00
     L(0) DIIS level shift : 0.00D+00
     T(1) DIIS level shift : 0.00D+00
     L(1) DIIS level shift : 0.00D+00
     T(R) DIIS level shift : 0.00D+00
     T(I) DIIS level shift : 0.00D+00
   CC-T/L Amplitude update :  5-th order DIIS
                I/O scheme : Global Array Library
        L-threshold :  0.10D-06
        EOM-threshold :  0.10D-06
 no EOMCCSD initial starts read in
 TCE RESTART OPTIONS
 READ_INT:   F
 WRITE_INT:  F
 READ_TA:    F
 WRITE_TA:   F
 READ_XA:    F
 WRITE_XA:   F
 READ_IN3:   F
 WRITE_IN3:  F
 SLICE:      F
 D4D5:       F
 quantumc:   F
 qrotation:  F
 pwtce:      F
 qducc:      T
 nacto:                         0
 nrotv:                         0
 nrot:                          0

            Memory Information
            ------------------
          Available GA space size is    1610607836 doubles
          Available MA space size is    1610609956 doubles

 Maximum block size        32 doubles

 tile_dim =     23

 Block   Spin    Irrep     Size     Offset   Alpha
 -------------------------------------------------
   1    alpha     a      3 doubles       0       1
   2    beta      a      3 doubles       3       1
   3    alpha     a     22 doubles       6       3
   4    alpha     a     22 doubles      28       4
   5    alpha     a     23 doubles      50       5
   6    beta      a     22 doubles      73       3
   7    beta      a     22 doubles      95       4
   8    beta      a     23 doubles     117       5

 Global array virtual files algorithm will be used

 Parallel file system coherency ......... OK

 Integral file          = ./Li2.aoints.0
 Record size in doubles =  65536        No. of integs per rec  =  43688
 Max. records in memory =     99        Max. records in file   = 280106
 No. of bits per label  =      8        No. of bits per value  =     64


 #quartets = 2.214D+04 #integrals = 8.605D+05 #direct =  0.0% #cached =100.0%


 Fock matrix recomputed
 1-e file size   =             4900
 1-e file name   = ./Li2.f1
 Cpu & wall time / sec            0.1            0.1
 4-electron integrals stored in orbital form

 v2    file size   =          5883722
 4-index algorithm nr.  13 is used
 imaxsize =       30
 imaxsize ichop =        0
 Cpu & wall time / sec            2.6            2.6
 T1-number-of-tasks                    3

 t1 file size   =              201
 t1 file name   = ./Li2.t1
 t1 file handle =       -998
 T2-number-of-boxes                   15

 t2 file size   =            67338
 t2 file name   = ./Li2.t2
 t2 file handle =       -996
CCSD iterations
 ---------------------------------------------------------
 Iter          Residuum       Correlation     Cpu    Wall 
 ---------------------------------------------------------
NEW TASK SCHEDULING
CCSD_T1_NTS --- OK
CCSD_T2_NTS --- OK
    1   0.1025045211705  -0.0573949710726     0.2     0.2
    2   0.0293797295683  -0.0606152841225     0.2     0.2
    3   0.0176545078774  -0.0621586937238     0.2     0.2
    4   0.0135981013636  -0.0631533864020     0.2     0.2
    5   0.0108895345560  -0.0638884294836     0.2     0.2
 MICROCYCLE DIIS UPDATE:                    5                    5
    6   0.0027043235555  -0.0666253949326     0.2     0.2
    7   0.0019584140308  -0.0666220562691     0.2     0.2
    8   0.0015660800162  -0.0666186050306     0.2     0.2
    9   0.0012816702080  -0.0666194713276     0.2     0.2
   10   0.0010623420455  -0.0666241073774     0.2     0.2
 MICROCYCLE DIIS UPDATE:                   10                    5
   11   0.0002490072925  -0.0666862156522     0.2     0.2
   12   0.0001679373049  -0.0666968415176     0.2     0.2
   13   0.0001374353894  -0.0667039210292     0.2     0.2
   14   0.0001163218128  -0.0667090491645     0.0     0.2
   15   0.0000998878615  -0.0667129391579     0.0     0.2
 MICROCYCLE DIIS UPDATE:                   15                    5
   16   0.0000346811737  -0.0667316201167     0.1     0.2
   17   0.0000252059791  -0.0667312783130     0.2     0.2
   18   0.0000210436854  -0.0667309672007     0.2     0.2
   19   0.0000180366506  -0.0667307403367     0.2     0.2
   20   0.0000156743784  -0.0667305975667     0.2     0.2
 MICROCYCLE DIIS UPDATE:                   20                    5
   21   0.0000060666553  -0.0667302746905     0.2     0.2
   22   0.0000041956491  -0.0667305275600     0.2     0.2
   23   0.0000034691521  -0.0667306887532     0.2     0.2
   24   0.0000029590465  -0.0667308043107     0.0     0.2
   25   0.0000025602268  -0.0667308916185     0.0     0.2
 MICROCYCLE DIIS UPDATE:                   25                    5
   26   0.0000009810395  -0.0667313231181     0.1     0.2
   27   0.0000007169918  -0.0667313109974     0.2     0.2
   28   0.0000005998316  -0.0667313011173     0.2     0.2
   29   0.0000005144983  -0.0667312940628     0.2     0.2
   30   0.0000004474174  -0.0667312895943     0.2     0.2
 MICROCYCLE DIIS UPDATE:                   30                    5
   31   0.0000001784572  -0.0667312793617     0.2     0.2
   32   0.0000001240856  -0.0667312864174     0.2     0.2
   33   0.0000001031216  -0.0667312909691     0.2     0.2
   34   0.0000000882864  -0.0667312942607     0.2     0.2
 -----------------------------------------------------------------
 Iterations converged
 CCSD correlation energy / hartree =        -0.066731294260740
 CCSD total energy / hartree       =       -14.916590316830865

 Singles contributions
     7a   (alpha) ---     3a   (alpha)        0.0382094133
    12a   (alpha) ---     3a   (alpha)        0.0342264295

 Doubles contributions
     4a   (alpha)     4a   (beta ) ---     3a   (alpha)     3a   (beta )       -0.3080950466
     5a   (alpha)     5a   (beta ) ---     3a   (alpha)     3a   (beta )       -0.0744026574
     5a   (alpha)    13a   (beta ) ---     3a   (alpha)     3a   (beta )       -0.0278872979
     5a   (alpha)    14a   (beta ) ---     3a   (alpha)     3a   (beta )       -0.0471538075
     6a   (alpha)     6a   (beta ) ---     3a   (alpha)     3a   (beta )       -0.0744026574
     6a   (alpha)    13a   (beta ) ---     3a   (alpha)     3a   (beta )        0.0471538075
     6a   (alpha)    14a   (beta ) ---     3a   (alpha)     3a   (beta )       -0.0278872979
     7a   (alpha)     7a   (beta ) ---     3a   (alpha)     3a   (beta )       -0.0565487742
     7a   (alpha)    11a   (beta ) ---     3a   (alpha)     3a   (beta )       -0.0473714435
     7a   (alpha)    12a   (beta ) ---     3a   (alpha)     3a   (beta )       -0.0284407725
     7a   (alpha)    25a   (beta ) ---     3a   (alpha)     3a   (beta )        0.0202995043
    11a   (alpha)     7a   (beta ) ---     3a   (alpha)     3a   (beta )       -0.0473714435
    11a   (alpha)    11a   (beta ) ---     3a   (alpha)     3a   (beta )       -0.0459513801
    11a   (alpha)    12a   (beta ) ---     3a   (alpha)     3a   (beta )       -0.0222850176
    12a   (alpha)     7a   (beta ) ---     3a   (alpha)     3a   (beta )       -0.0284407725
    12a   (alpha)    11a   (beta ) ---     3a   (alpha)     3a   (beta )       -0.0222850176
    13a   (alpha)     5a   (beta ) ---     3a   (alpha)     3a   (beta )       -0.0278872979
    13a   (alpha)     6a   (beta ) ---     3a   (alpha)     3a   (beta )        0.0471538075
    13a   (alpha)    13a   (beta ) ---     3a   (alpha)     3a   (beta )       -0.0423357571
    14a   (alpha)     5a   (beta ) ---     3a   (alpha)     3a   (beta )       -0.0471538075
    14a   (alpha)     6a   (beta ) ---     3a   (alpha)     3a   (beta )       -0.0278872979
    14a   (alpha)    14a   (beta ) ---     3a   (alpha)     3a   (beta )       -0.0423357571
    25a   (alpha)     7a   (beta ) ---     3a   (alpha)     3a   (beta )        0.0202995043
 Ground state specification:
 exp(T)|Ref>~(1+T)|Ref>
 ------- a(p)+/a(q) strings ----------

 singles norm

 doubles norm

 Reference string
  0.95567075992966333      :(1a)+ (2a)+ (3a)+ (1b)+ (2b)+ (3b)+ |0>

 Singles strings

 Doubles strings
 -0.29443742733467121      :(4a)+ (4b)+ (3b)  (3a)  (1a)+ (2a)+ (3a)+ (1b)+ (2b)+ (3b)+ |0>
 -------------------------------------
 enrep_tce =    1.2000000000000000     
  EHF(total)         =       -14.84985902
  Shift (HFtot-HFA)  =         0.00000000
 ALL OCCUPIED ORBITALS ARE ACTIVE IN DUCC --> NO SHIFT
 Number of active orbitals                    4
 Number of active alpha electrons                    3
 Number of active beta electrons                    3
  nos                     6
  nvs                   134
 noas                     3
 nobs                     3
 nvas                    67
 nvbs                    67
 nactv                     1
 DUCC MODEL =                     6
 NONHF =  T
 F-T1 correlation    =   -1.3930418172506515E-003
 V-T1-T1 correlation =    9.2788555573908283E-005
 V-T2 correlation    =   -6.5431040998661677E-002
 Total correlation   =   -6.6731294260338414E-002
 F-T1(Ext) correlation         =   -1.3962262362735220E-003
 V-T1(Ext)-T1(Ext) correlation =    9.2235267861036236E-005
 V-T2(Ext) correlation         =   -4.8165395744658661E-002
 Total Ext correlation         =   -4.9469386713071148E-002
1-BODY TIME =  216.835 SECONDS.
  HHHH TIME =  210.834 SECONDS.
  PPPP TIME =    0.760 SECONDS.
  HHHP TIME =    5.776 SECONDS.
  PPPH TIME =    1.006 SECONDS.
  HPHP TIME =    4.665 SECONDS.
  HHPP TIME =    1.247 SECONDS.
 ONE-BODY UNITARY CHECK
 TWO-BODY UNITARY CHECK
                    1                    1                    1                    3  -3.8554563361915041E-010
                    1                    1                    3                    1   3.8554563284220117E-010
                    1                    2                    2                    3  -3.8875608786813343E-010
                    1                    2                    3                    2   4.1956444286721239E-010
                    1                    3                    1                    1   3.8554563361915041E-010
                    1                    3                    2                    2  -6.6863791570004460E-012
                    1                    3                    3                    1  -9.4618614887576058E-009
                    1                    3                    3                    3   1.2231854813511465E-009
                    1                    4                    1                    6  -8.7040245150271645E-010
                    1                    4                    2                    5  -8.4551721180048389E-010
                    1                    4                    3                    4  -2.2771352151118585E-008
                    1                    4                    3                    6   4.2353521195401256E-008
                    1                    4                    4                    3   4.8485680748111548E-010
                    1                    4                    5                    2   8.4551721180048389E-010
                    1                    4                    6                    1   2.3156897795140186E-008
                    1                    4                    6                    3  -4.2353521194533894E-008
                    1                    5                    2                    4  -9.3799223943591414E-010
                    1                    5                    2                    6   7.6619836170133127E-010
                    1                    5                    3                    5  -2.3237063682957082E-008
                    1                    5                    5                    1   9.3729946026854805E-010
                    1                    5                    5                    3  -1.1549544862154981E-009
                    1                    5                    6                    2   2.3656628170276583E-008
                    1                    6                    1                    4   8.7040245150271645E-010
                    1                    6                    2                    5   1.7824167558577741E-009
                    1                    6                    3                    4   2.7483033729000517E-008
                    1                    6                    3                    6   6.5395119292020049E-007
                    1                    6                    4                    1  -4.8485682135890329E-010
                    1                    6                    5                    2  -1.7891031087180487E-009
                    1                    6                    6                    1  -3.6944895226431740E-008
                    1                    6                    6                    3  -6.5272800743002186E-007
                    2                    1                    2                    3   7.3040673986488058E-012
                    2                    1                    3                    2  -3.8112423156669295E-011
                    2                    2                    1                    3   6.6863791570004460E-012
                    2                    2                    3                    1  -6.6863791644951160E-012
                    2                    3                    1                    2   3.8875608786813343E-010
                    2                    3                    2                    1  -7.3040673986488058E-012
                    2                    3                    3                    2  -9.5546046352534830E-009
                    2                    4                    1                    5   9.3799223943591414E-010
                    2                    4                    2                    6  -2.1455715676355069E-010
                    2                    4                    3                    5  -2.4644687755814854E-008
                    2                    4                    4                    2  -9.3729946026854805E-010
                    2                    4                    5                    3   2.2186122383693885E-010
                    2                    4                    6                    2   2.4606575318997237E-008
                    2                    5                    1                    4   8.4551721180048389E-010
                    2                    5                    1                    6  -1.7824167558577741E-009
                    2                    5                    3                    4  -2.4196187116409806E-008
                    2                    5                    3                    6   3.5598465837442805E-008
                    2                    5                    4                    1  -8.4551721180048389E-010
                    2                    5                    4                    3   1.7891031017791548E-009
                    2                    5                    6                    1   2.4189500777427320E-008
                    2                    5                    6                    3  -3.5598465837442805E-008
                    2                    6                    1                    5  -7.6619836170133127E-010
                    2                    6                    2                    4   2.1455715676355069E-010
                    2                    6                    3                    5   2.1419448779751160E-008
                    2                    6                    4                    2   1.1549544168265591E-009
                    2                    6                    5                    1  -2.2186122383693885E-010
                    2                    6                    6                    2  -3.0974053433219240E-008
                    3                    1                    1                    1  -3.8554563284220117E-010
                    3                    1                    1                    3   9.4618614887576058E-009
                    3                    1                    2                    2   6.6863791644951160E-012
                    3                    1                    3                    3  -1.2231854821834788E-009
                    3                    2                    1                    2  -4.1956444286721239E-010
                    3                    2                    2                    1   3.8112423156669295E-011
                    3                    2                    2                    3   9.5546046352534830E-009
                    3                    3                    1                    3  -1.2231854813511465E-009
                    3                    3                    3                    1   1.2231854821834788E-009
                    3                    4                    1                    4   2.2771352151118585E-008
                    3                    4                    1                    6  -2.7483033729000517E-008
                    3                    4                    2                    5   2.4196187116409806E-008
                    3                    4                    3                    6  -5.5025958789478580E-010
                    3                    4                    4                    1  -2.3156897781262398E-008
                    3                    4                    4                    3   3.6944895226431740E-008
                    3                    4                    5                    2  -2.4189500777427320E-008
                    3                    4                    6                    3  -6.7292589187549490E-010
                    3                    5                    1                    5   2.3237063682957082E-008
                    3                    5                    2                    4   2.4644687755814854E-008
                    3                    5                    2                    6  -2.1419448779751160E-008
                    3                    5                    4                    2  -2.3656628170276583E-008
                    3                    5                    5                    1  -2.4606575249608298E-008
                    3                    5                    5                    3   3.0974053433219240E-008
                    3                    6                    1                    4  -4.2353521195401256E-008
                    3                    6                    1                    6  -6.5395119292020049E-007
                    3                    6                    2                    5  -3.5598465837442805E-008
                    3                    6                    3                    4   5.5025958789478580E-010
                    3                    6                    4                    1   4.2353521195401256E-008
                    3                    6                    4                    3   6.5272800745691008E-007
                    3                    6                    5                    2   3.5598465837442805E-008
                    3                    6                    6                    1   6.7292588818920751E-010
                    4                    1                    1                    6   4.8485682135890329E-010
                    4                    1                    2                    5   8.4551721180048389E-010
                    4                    1                    3                    4   2.3156897781262398E-008
                    4                    1                    3                    6  -4.2353521195401256E-008
                    4                    1                    4                    3  -8.7040243762492864E-010
                    4                    1                    5                    2  -8.4551721180048389E-010
                    4                    1                    6                    1  -2.2771352164996372E-008
                    4                    1                    6                    3   4.2353521196268618E-008
                    4                    2                    2                    4   9.3729946026854805E-010
                    4                    2                    2                    6  -1.1549544168265591E-009
                    4                    2                    3                    5   2.3656628170276583E-008
                    4                    2                    5                    1  -9.3799135125749444E-010
                    4                    2                    5                    3   7.6619836170133127E-010
                    4                    2                    6                    2  -2.3237063759284915E-008
                    4                    3                    1                    4  -4.8485680748111548E-010
                    4                    3                    2                    5  -1.7891031017791548E-009
                    4                    3                    3                    4  -3.6944895226431740E-008
                    4                    3                    3                    6  -6.5272800745691008E-007
                    4                    3                    4                    1   8.7040243762492864E-010
                    4                    3                    5                    2   1.7824167489188802E-009
                    4                    3                    6                    1   2.7483033732469964E-008
                    4                    3                    6                    3   6.5395119293668036E-007
                    4                    4                    4                    6  -3.8554563302283937E-010
                    4                    4                    6                    4   3.8554563255759908E-010
                    4                    5                    5                    6  -3.8875608743445256E-010
                    4                    5                    6                    5   4.1956444373457413E-010
                    4                    6                    4                    4   3.8554563302283937E-010
                    4                    6                    5                    5  -6.6863791451423984E-012
                    4                    6                    6                    4  -9.4618614887576058E-009
                    4                    6                    6                    6   1.2231854822371273E-009
                    5                    1                    1                    5  -9.3729946026854805E-010
                    5                    1                    2                    6   2.2186122383693885E-010
                    5                    1                    3                    5   2.4606575249608298E-008
                    5                    1                    4                    2   9.3799135125749444E-010
                    5                    1                    5                    3  -2.1455708043571775E-010
                    5                    1                    6                    2  -2.4644687755814854E-008
                    5                    2                    1                    4  -8.4551721180048389E-010
                    5                    2                    1                    6   1.7891031087180487E-009
                    5                    2                    3                    4   2.4189500777427320E-008
                    5                    2                    3                    6  -3.5598465837442805E-008
                    5                    2                    4                    1   8.4551721180048389E-010
                    5                    2                    4                    3  -1.7824167489188802E-009
                    5                    2                    6                    1  -2.4196187130287594E-008
                    5                    2                    6                    3   3.5598465837442805E-008
                    5                    3                    1                    5   1.1549544862154981E-009
                    5                    3                    2                    4  -2.2186122383693885E-010
                    5                    3                    3                    5  -3.0974053433219240E-008
                    5                    3                    4                    2  -7.6619836170133127E-010
                    5                    3                    5                    1   2.1455708043571775E-010
                    5                    3                    6                    2   2.1419448781485884E-008
                    5                    4                    5                    6   7.3040650134040264E-012
                    5                    4                    6                    5  -3.8112419361961691E-011
                    5                    5                    4                    6   6.6863791451423984E-012
                    5                    5                    6                    4  -6.6863790882621507E-012
                    5                    6                    4                    5   3.8875608743445256E-010
                    5                    6                    5                    4  -7.3040650134040264E-012
                    5                    6                    6                    5  -9.5546046352534830E-009
                    6                    1                    1                    4  -2.3156897795140186E-008
                    6                    1                    1                    6   3.6944895226431740E-008
                    6                    1                    2                    5  -2.4189500777427320E-008
                    6                    1                    3                    6  -6.7292588818920751E-010
                    6                    1                    4                    1   2.2771352164996372E-008
                    6                    1                    4                    3  -2.7483033732469964E-008
                    6                    1                    5                    2   2.4196187130287594E-008
                    6                    1                    6                    3  -5.5025960198941404E-010
                    6                    2                    1                    5  -2.3656628170276583E-008
                    6                    2                    2                    4  -2.4606575318997237E-008
                    6                    2                    2                    6   3.0974053433219240E-008
                    6                    2                    4                    2   2.3237063759284915E-008
                    6                    2                    5                    1   2.4644687755814854E-008
                    6                    2                    5                    3  -2.1419448781485884E-008
                    6                    3                    1                    4   4.2353521194533894E-008
                    6                    3                    1                    6   6.5272800743002186E-007
                    6                    3                    2                    5   3.5598465837442805E-008
                    6                    3                    3                    4   6.7292589187549490E-010
                    6                    3                    4                    1  -4.2353521196268618E-008
                    6                    3                    4                    3  -6.5395119293668036E-007
                    6                    3                    5                    2  -3.5598465837442805E-008
                    6                    3                    6                    1   5.5025960198941404E-010
                    6                    4                    4                    4  -3.8554563255759908E-010
                    6                    4                    4                    6   9.4618614887576058E-009
                    6                    4                    5                    5   6.6863790882621507E-012
                    6                    4                    6                    6  -1.2231854812822366E-009
                    6                    5                    4                    5  -4.1956444373457413E-010
                    6                    5                    5                    4   3.8112419361961691E-011
                    6                    5                    5                    6   9.5546046352534830E-009
                    6                    6                    4                    6  -1.2231854822371273E-009
                    6                    6                    6                    4   1.2231854812822366E-009
 TWO-BODY ANTISYMMETRY CHECK
 TRANSFORMED ~FOCK~ MATRIX
    1    1        -2.4941093833
    1    3         0.0054681389
    2    2        -2.4941184105
    2    4        -0.0033653055
    3    1         0.0054681389
    3    3        -0.1789048298
    4    2        -0.0033653055
    4    4         0.0211959171
 begin_one_electron_integrals
    1    1        -4.8394668511
    1    3         0.1163580551
    1    4         0.0000000007
    2    2        -4.8399929400
    2    3        -0.0000000006
    2    4         0.1405605312
    3    1         0.1163580519
    3    2        -0.0000000006
    3    3        -1.2516165587
    4    1         0.0000000007
    4    2         0.1405605312
    4    4        -1.2250218816
 end_one_electron_integrals
 begin_two_electron_integrals
    1    1    1    1        0.8820993545
    1    1    1    2        0.0000000074
    1    1    1    3       -0.0549591250
    1    1    1    4       -0.0000000010
    1    2    1    1        0.0000000074
    1    2    1    2        0.7490950697
    1    2    1    3       -0.0000000003
    1    2    1    4       -0.0705189785
    1    3    1    1       -0.0549591473
    1    3    1    2       -0.0000000003
    1    3    1    3        0.0047926408
    1    4    1    1       -0.0000000010
    1    4    1    2       -0.0705189785
    1    4    1    4        0.0117430353
    1    1    2    1        0.0000000074
    1    1    2    2        0.8823364912
    1    1    2    3       -0.0000000003
    1    1    2    4       -0.0707604999
    1    2    2    1        0.7490824491
    1    2    2    2       -0.0000000074
    1    2    2    3       -0.0555082588
    1    2    2    4        0.0000000004
    1    3    2    1       -0.0000000003
    1    3    2    2       -0.0549822256
    1    3    2    4        0.0080534001
    1    4    2    1       -0.0705236016
    1    4    2    2        0.0000000003
    1    4    2    3        0.0080532201
    1    1    3    1       -0.0549591241
    1    1    3    2       -0.0000000003
    1    1    3    3        0.2267737677
    1    1    3    4        0.0000000009
    1    2    3    1       -0.0000000003
    1    2    3    2       -0.0555169789
    1    2    3    4        0.0945096466
    1    3    3    1        0.0058800276
    1    3    3    3       -0.0014746453
    1    4    3    2        0.0081154561
    1    4    3    4       -0.0025293422
    1    1    4    1       -0.0000000010
    1    1    4    2       -0.0707604999
    1    1    4    3        0.0000000009
    1    1    4    4        0.2370919666
    1    2    4    1       -0.0705236016
    1    2    4    2        0.0000000003
    1    2    4    3        0.0945106743
    1    3    4    2        0.0081166786
    1    3    4    4       -0.0017720533
    1    4    4    1        0.0091850616
    1    4    4    3       -0.0014489774
    2    1    1    1        0.0000000074
    2    1    1    2        0.7490824501
    2    1    1    3       -0.0000000003
    2    1    1    4       -0.0705236016
    2    2    1    1        0.8823364903
    2    2    1    2       -0.0000000074
    2    2    1    3       -0.0549822012
    2    2    1    4        0.0000000003
    2    3    1    1       -0.0000000003
    2    3    1    2       -0.0555082833
    2    3    1    4        0.0080532201
    2    4    1    1       -0.0707604999
    2    4    1    2        0.0000000004
    2    4    1    3        0.0080534001
    2    1    2    1        0.7490950705
    2    1    2    2       -0.0000000074
    2    1    2    3       -0.0555169807
    2    1    2    4        0.0000000003
    2    2    2    1       -0.0000000074
    2    2    2    2        0.8826040224
    2    2    2    3        0.0000000008
    2    2    2    4       -0.0707950753
    2    3    2    1       -0.0555170031
    2    3    2    2        0.0000000008
    2    3    2    3        0.0048074942
    2    4    2    1        0.0000000003
    2    4    2    2       -0.0707950753
    2    4    2    4        0.0117544369
    2    1    3    1       -0.0000000003
    2    1    3    2       -0.0555082596
    2    1    3    4        0.0945106743
    2    2    3    1       -0.0549822010
    2    2    3    2        0.0000000008
    2    2    3    3        0.2267827872
    2    2    3    4       -0.0000000009
    2    3    3    2        0.0058856616
    2    3    3    4       -0.0020979534
    2    4    3    1        0.0081166786
    2    4    3    3       -0.0021156583
    2    1    4    1       -0.0705189785
    2    1    4    2        0.0000000004
    2    1    4    3        0.0945096466
    2    2    4    1        0.0000000003
    2    2    4    2       -0.0707950753
    2    2    4    3       -0.0000000009
    2    2    4    4        0.2370999121
    2    3    4    1        0.0081154561
    2    3    4    3       -0.0024877229
    2    4    4    2        0.0091917138
    2    4    4    4       -0.0021605518
    3    1    1    1       -0.0549591245
    3    1    1    2       -0.0000000003
    3    1    1    3        0.0058800001
    3    2    1    1       -0.0000000003
    3    2    1    2       -0.0555169789
    3    2    1    4        0.0081154561
    3    3    1    1        0.2267738047
    3    3    1    3       -0.0014746465
    3    4    1    1        0.0000000009
    3    4    1    2        0.0945096466
    3    4    1    4       -0.0025293422
    3    1    2    1       -0.0000000003
    3    1    2    2       -0.0549822023
    3    1    2    4        0.0081166786
    3    2    2    1       -0.0555082586
    3    2    2    2        0.0000000008
    3    2    2    3        0.0058856402
    3    3    2    2        0.2267828182
    3    3    2    4       -0.0021156583
    3    4    2    1        0.0945106743
    3    4    2    2       -0.0000000009
    3    4    2    3       -0.0020979534
    3    1    3    1        0.0047925985
    3    1    3    3       -0.0014752992
    3    2    3    2        0.0048074586
    3    2    3    4       -0.0024877229
    3    3    3    1       -0.0014746460
    3    3    3    3        0.1773642592
    3    4    3    2       -0.0024877229
    3    4    3    4        0.0429276634
    3    1    4    2        0.0080534001
    3    1    4    4       -0.0017720533
    3    2    4    1        0.0080532201
    3    2    4    3       -0.0020979534
    3    3    4    2       -0.0021156583
    3    3    4    4        0.1844042337
    3    4    4    1       -0.0014489774
    3    4    4    3        0.0525976506
    4    1    1    1       -0.0000000010
    4    1    1    2       -0.0705236016
    4    1    1    4        0.0091850616
    4    2    1    1       -0.0707604999
    4    2    1    2        0.0000000003
    4    2    1    3        0.0081166786
    4    3    1    1        0.0000000009
    4    3    1    2        0.0945106743
    4    3    1    4       -0.0014489774
    4    4    1    1        0.2370919666
    4    4    1    3       -0.0017720533
    4    1    2    1       -0.0705189785
    4    1    2    2        0.0000000003
    4    1    2    3        0.0081154561
    4    2    2    1        0.0000000004
    4    2    2    2       -0.0707950753
    4    2    2    4        0.0091917138
    4    3    2    1        0.0945096466
    4    3    2    2       -0.0000000009
    4    3    2    3       -0.0024877229
    4    4    2    2        0.2370999121
    4    4    2    4       -0.0021605518
    4    1    3    2        0.0080532201
    4    1    3    4       -0.0014489774
    4    2    3    1        0.0080534001
    4    2    3    3       -0.0021156583
    4    3    3    2       -0.0020979534
    4    3    3    4        0.0525976506
    4    4    3    1       -0.0017720533
    4    4    3    3        0.1844042337
    4    1    4    1        0.0117430353
    4    1    4    3       -0.0025293422
    4    2    4    2        0.0117544369
    4    2    4    4       -0.0021605518
    4    3    4    1       -0.0025293422
    4    3    4    3        0.0429276634
    4    4    4    2       -0.0021605518
    4    4    4    4        0.1849834170
 end_two_electron_integrals

 Parallel integral file used      20 records with       0 large values


 Task  times  cpu:      476.8s     wall:      480.2s


                                NWChem Input Module
                                -------------------


 Summary of allocated global arrays
-----------------------------------
  No active global arrays


MA_summarize_allocated_blocks: starting scan ...
MA_summarize_allocated_blocks: scan completed: 0 heap blocks, 0 stack blocks
MA usage statistics:

	allocation statistics:
					      heap	     stack
					      ----	     -----
	current number of blocks	         0	         0
	maximum number of blocks	        18	        42
	current total bytes		         0	         0
	maximum total bytes		  51988456	9998573272
	maximum total K-bytes		     51989	   9998574
	maximum total M-bytes		        52	      9999


                                     CITATION
                                     --------
                Please cite the following reference when publishing
                           results obtained with NWChem:

          E. Apra, E. J. Bylaska, W. A. de Jong, N. Govind, K. Kowalski,
       T. P. Straatsma, M. Valiev, H. J. J. van Dam, Y. Alexeev, J. Anchell,
       V. Anisimov, F. W. Aquino, R. Atta-Fynn, J. Autschbach, N. P. Bauman,
     J. C. Becca, D. E. Bernholdt, K. Bhaskaran-Nair, S. Bogatko, P. Borowski,
         J. Boschen, J. Brabec, A. Bruner, E. Cauet, Y. Chen, G. N. Chuev,
      C. J. Cramer, J. Daily, M. J. O. Deegan, T. H. Dunning Jr., M. Dupuis,
   K. G. Dyall, G. I. Fann, S. A. Fischer, A. Fonari, H. Fruchtl, L. Gagliardi,
      J. Garza, N. Gawande, S. Ghosh, K. Glaesemann, A. W. Gotz, J. Hammond,
       V. Helms, E. D. Hermes, K. Hirao, S. Hirata, M. Jacquelin, L. Jensen,
   B. G. Johnson, H. Jonsson, R. A. Kendall, M. Klemm, R. Kobayashi, V. Konkov,
      S. Krishnamoorthy, M. Krishnan, Z. Lin, R. D. Lins, R. J. Littlefield,
      A. J. Logsdail, K. Lopata, W. Ma, A. V. Marenich, J. Martin del Campo,
   D. Mejia-Rodriguez, J. E. Moore, J. M. Mullin, T. Nakajima, D. R. Nascimento,
    J. A. Nichols, P. J. Nichols, J. Nieplocha, A. Otero-de-la-Roza, B. Palmer,
    A. Panyala, T. Pirojsirikul, B. Peng, R. Peverati, J. Pittner, L. Pollack,
   R. M. Richard, P. Sadayappan, G. C. Schatz, W. A. Shelton, D. W. Silverstein,
   D. M. A. Smith, T. A. Soares, D. Song, M. Swart, H. L. Taylor, G. S. Thomas,
            V. Tipparaju, D. G. Truhlar, K. Tsemekhman, T. Van Voorhis,
      A. Vazquez-Mayagoitia, P. Verma, O. Villa, A. Vishnu, K. D. Vogiatzis,
        D. Wang, J. H. Weare, M. J. Williamson, T. L. Windus, K. Wolinski,
        A. T. Wong, Q. Wu, C. Yang, Q. Yu, M. Zacharias, Z. Zhang, Y. Zhao,
                                and R. J. Harrison
                        "NWChem: Past, present, and future
                         J. Chem. Phys. 152, 184102 (2020)
                               doi:10.1063/5.0004997

                                      AUTHORS
                                      -------
  E. Apra, E. J. Bylaska, N. Govind, K. Kowalski, M. Valiev, D. Mejia-Rodriguez,
       A. Kunitsa, N. P. Bauman, A. Panyala, W. A. de Jong, T. P. Straatsma,
        H. J. J. van Dam, D. Wang, T. L. Windus, J. Hammond, J. Autschbach,
    K. Bhaskaran-Nair, J. Brabec, K. Lopata, S. A. Fischer, S. Krishnamoorthy,
     M. Jacquelin, W. Ma, M. Klemm, O. Villa, Y. Chen, V. Anisimov, F. Aquino,
    S. Hirata, M. T. Hackler, Eric Hermes, L. Jensen, J. E. Moore, J. C. Becca,
      V. Konjkov, T. Risthaus, M. Malagoli, A. Marenich, A. Otero-de-la-Roza,
        J. Mullin, P. Nichols, R. Peverati, J. Pittner, Y. Zhao, P.-D. Fan,
        A. Fonari, M. J. Williamson, R. J. Harrison, J. R. Rehr, M. Dupuis,
     D. Silverstein, D. M. A. Smith, J. Nieplocha, V. Tipparaju, M. Krishnan,
     B. E. Van Kuiken, A. Vazquez-Mayagoitia, M. Swart, Q. Wu, T. Van Voorhis,
     A. A. Auer, M. Nooijen, L. D. Crosby, E. Brown, G. Cisneros, G. I. Fann,
   H. Fruchtl, J. Garza, K. Hirao, R. A. Kendall, J. A. Nichols, K. Tsemekhman,
    K. Wolinski, J. Anchell, D. E. Bernholdt, P. Borowski, T. Clark, D. Clerc,
   H. Dachsel, M. J. O. Deegan, K. Dyall, D. Elwood, E. Glendening, M. Gutowski,
   A. C. Hess, J. Jaffe, B. G. Johnson, J. Ju, R. Kobayashi, R. Kutteh, Z. Lin,
   R. Littlefield, X. Long, B. Meng, T. Nakajima, S. Niu, L. Pollack, M. Rosing,
   K. Glaesemann, G. Sandrone, M. Stave, H. Taylor, G. Thomas, J. H. van Lenthe,
                               A. T. Wong, Z. Zhang.

 Total times  cpu:      478.2s     wall:      481.6s
