 argument  1 = input.nw
  NWChem w/ OpenMP: maximum threads =    1



============================== echo of input deck ==============================
 echo
 start Li2
 title "Li2"

 memory total 24 gb

 geometry units bohr
 symmetry c1
        Li  0.00000000  0.00000000  0.00000000
        Li  0.00000000  9.9  0.00000000
 end

 basis
   * library cc-pVTZ
 end

 mcscf
   active  4
   actelec 6
   multiplicity 1
   maxiter 40
   vectors input Li2.mos
   vectors output Li2.mos
 end

 task mcscf

 scf
   vectors input Li2.mos
   vectors output Li2-9.9.mos
   noscf
 end

 tce
   2eorb
   2emet 13
   ccsd
   maxiter 300
   lshift 0.3
 end

# set tce:print_integrals T
# set tce:qorb 10
# set tce:qela 1
# set tce:qelb 1

 set tce:qducc T
 set tce:nactv 1
 set tce:nonhf T
 set tce:ducc_model 6

 set tce:printtol 0.02

 task tce
================================================================================


                                         
                                         


             Northwest Computational Chemistry Package (NWChem) 7.0.1
             --------------------------------------------------------


                    Environmental Molecular Sciences Laboratory
                       Pacific Northwest National Laboratory
                                Richland, WA 99352

                              Copyright (c) 1994-2020
                       Pacific Northwest National Laboratory
                            Battelle Memorial Institute

             NWChem is an open-source computational chemistry package
                        distributed under the terms of the
                      Educational Community License (ECL) 2.0
             A copy of the license is included with this distribution
                              in the LICENSE.TXT file

                                  ACKNOWLEDGMENT
                                  --------------

            This software and its documentation were developed at the
            EMSL at Pacific Northwest National Laboratory, a multiprogram
            national laboratory, operated for the U.S. Department of Energy
            by Battelle under Contract Number DE-AC05-76RL01830. Support
            for this work was provided by the Department of Energy Office
            of Biological and Environmental Research, Office of Basic
            Energy Sciences, and the Office of Advanced Scientific Computing.


           Job information
           ---------------

    hostname        = WE46210
    program         = /home/baum612/code/nwchem/bin/LINUX64/nwchem
    date            = Wed Nov 15 06:27:06 2023

    compiled        = Mon_Nov_06_10:06:57_2023
    source          = /home/baum612/code/nwchem
    nwchem branch   = 7.0.0
    nwchem revision = nwchem_on_git-4191-g39d87d64de
    ga revision     = 5.8.1
    use scalapack   = F
    input           = input.nw
    prefix          = Li2.
    data base       = ./Li2.db
    status          = startup
    nproc           =        1
    time left       =     -1s



           Memory information
           ------------------

    heap     =  805306362 doubles =   6144.0 Mbytes
    stack    =  805306367 doubles =   6144.0 Mbytes
    global   = 1610612736 doubles =  12288.0 Mbytes (distinct from heap & stack)
    total    = 3221225465 doubles =  24576.0 Mbytes
    verify   = yes
    hardfail = no 


           Directory information
           ---------------------

  0 permanent = .
  0 scratch   = .




                                NWChem Input Module
                                -------------------


                                        Li2
                                        ---
 Turning off AUTOSYM since
 SYMMETRY directive was detected!


          ------
          auto-z
          ------
     1 autoz failed with cvr_scaling = 1.2 changing to 1.3
     2 autoz failed with cvr_scaling = 1.3 changing to 1.4
     3 autoz failed with cvr_scaling = 1.4 changing to 1.5
     4 autoz failed with cvr_scaling = 1.5 changing to 1.6
     5 autoz failed with cvr_scaling = 1.6 changing to 1.7

 AUTOZ failed to generate good internal coordinates.
 Cartesian coordinates will be used in optimizations.



                             Geometry "geometry" -> ""
                             -------------------------

 Output coordinates in a.u. (scale by  1.000000000 to convert to a.u.)

  No.       Tag          Charge          X              Y              Z
 ---- ---------------- ---------- -------------- -------------- --------------
    1 Li                   3.0000     0.00000000    -4.95000000     0.00000000
    2 Li                   3.0000     0.00000000     4.95000000     0.00000000

      Atomic Mass 
      ----------- 

      Li                 7.016000


 Effective nuclear repulsion energy (a.u.)       0.9090909091

            Nuclear Dipole moment (a.u.) 
            ----------------------------
        X                 Y               Z
 ---------------- ---------------- ----------------
     0.0000000000     0.0000000000     0.0000000000


            XYZ format geometry
            -------------------
     2
 geometry
 Li                    0.00000000    -2.61942738     0.00000000
 Li                    0.00000000     2.61942738     0.00000000



 Summary of "ao basis" -> "" (cartesian)
 ------------------------------------------------------------------------------
       Tag                 Description            Shells   Functions and Types
 ---------------- ------------------------------  ------  ---------------------
 *                          cc-pVTZ                   on all atoms 


                      Basis "ao basis" -> "ao basis" (cartesian)
                      -----
  Li (Lithium)
  ------------
            Exponent  Coefficients 
       -------------- ---------------------------------------------------------
  1 S  5.98800000E+03  0.000133
  1 S  8.98900000E+02  0.001025
  1 S  2.05900000E+02  0.005272
  1 S  5.92400000E+01  0.020929
  1 S  1.98700000E+01  0.066340
  1 S  7.40600000E+00  0.165775
  1 S  2.93000000E+00  0.315038
  1 S  1.18900000E+00  0.393523
  1 S  4.79800000E-01  0.190870

  2 S  5.98800000E+03 -0.000021
  2 S  8.98900000E+02 -0.000161
  2 S  2.05900000E+02 -0.000820
  2 S  5.92400000E+01 -0.003326
  2 S  1.98700000E+01 -0.010519
  2 S  7.40600000E+00 -0.028097
  2 S  2.93000000E+00 -0.055936
  2 S  1.18900000E+00 -0.099237
  2 S  4.79800000E-01 -0.112189

  3 S  7.50900000E-02  1.000000

  4 S  2.83200000E-02  1.000000

  5 P  3.26600000E+00  0.008630
  5 P  6.51100000E-01  0.047538
  5 P  1.69600000E-01  0.209772

  6 P  5.57800000E-02  1.000000

  7 P  2.05000000E-02  1.000000

  8 D  1.87400000E-01  1.000000

  9 D  8.01000000E-02  1.000000

 10 F  1.82900000E-01  1.000000



 Summary of "ao basis" -> "ao basis" (cartesian)
 ------------------------------------------------------------------------------
       Tag                 Description            Shells   Functions and Types
 ---------------- ------------------------------  ------  ---------------------
 Li                         cc-pVTZ                 10       35   4s3p2d1f



                            NWChem Direct MCSCF Module
                            --------------------------


                                        Li2


     -----------------------------------
       Basis functions:             70
       Inactive shells:              0
       Active shells:                4
       Active electrons:             6
       Symmetry:                    a       
       Multiplicity:                 1
       Orbital rotations:          264
     -----------------------------------

     -----------------------------------
       E2 extrapolation:             F
       Conjugacy:                    T
       Micro CI relax:               T
       Canonical orbitals:           T
       Maximum iterations:          40
       Converge threshold:    1.00E-04
       Conjugacy resets:            20
       Initial levelshift:        0.10
     -----------------------------------

 Loading old vectors from job with title :

Li2


   input molecular orbitals = ./Li2.mos
  output molecular orbtials = ./Li2.mos

       No. of determinants:            16


  Starting Orbital Energies
    -2.478606    -2.478606    -0.126603    -0.068339     0.026224     0.026224
     0.032568     0.043393     0.043393     0.048449     0.102915     0.109098
     0.116822     0.116822     0.125193     0.125193     0.128523     0.140535
     0.205016     0.205016     0.221825     0.221825     0.235934     0.235934
     0.238883     0.273123     0.273123     0.317279     0.361229     0.361229
     0.375045     0.375045     0.380574     0.397516     0.398297     0.463459
     0.711333     0.711333     0.723079     0.723079     0.733652     0.734825
     0.734825     0.737643     0.737643     0.742419     0.750514     0.750514
     0.751245     0.751245     0.751488     0.751488     0.751981     0.751981
     0.756856     0.756856     0.771090     0.802671     0.802671     0.897679
     0.929395     0.929395     0.936136     0.936136     0.958966     0.966267
     1.359050     1.379152     6.354822     6.369303

  Orbital Symmetry Irreps
a    a    a    a    a    a    a    a    a    a    a    a    a    a    a   
a    a    a    a    a    a    a    a    a    a    a    a    a    a    a   
a    a    a    a    a    a    a    a    a    a    a    a    a    a    a   
a    a    a    a    a    a    a    a    a    a    a    a    a    a    a   
a    a    a    a    a    a    a    a    a    a   

 Integral file          = ./Li2.aoints.0
 Record size in doubles =  65536        No. of integs per rec  =  43688
 Max. records in memory =     99        Max. records in file   = 280051
 No. of bits per label  =      8        No. of bits per value  =     64


 #quartets = 2.127D+04 #integrals = 8.265D+05 #direct =  0.0% #cached =100.0%




          %%%%% MacroIteration   1 %%%%%


          Number of sigma calls:        5
                       o<<<<< (aa):             0.00
                       o<<<<< (bb):             0.00
                       o<<<<< (ab):             0.00
                       o<<<<< (total)           0.00
                       o<<<<< (aa) ff           0.00
                       o<<<<< (aa) gop          0.00
                       o<<<<< (aa) dot          0.00
                       o<<<<< (ab) str          0.00
                       o<<<<< (ab) gath         0.00
                       o<<<<< (ab) dotab        0.00
                       o<<<<< (ab) scat         0.00
                       o<<<<< (ab) sync         0.00
                       o<<<<< Density           0.00
                       o<<<<< Density one       0.00
                       o<<<<< Density two       0.00
                       o<<<<< Density ab        0.00
                       o<<<<< Spin adapt        0.00
                       o<<<<< Symm adapt        0.00

                       o<<<<< (ab) max sync:      0.00

           >>>| Valence CI:            -15.776059382281
           >>>| MCSCF energy:          -14.866968473190
           >>>| Gradient norm:          0.849968085D-03
     --- Warning:   16 Hessian diagonals < 0.05 ---

                              ----- Line search ------

        step       energy         lsg     num-lsg   num-lsh   lsrat    time
      ------- ---------------- --------- --------- --------- ------- --------
       0.0000     -14.86696847 -6.91D-07  0.00D+00  0.00D+00 0.0D+00      0.9

          Number of sigma calls:        4
                       o<<<<< (aa):             0.00
                       o<<<<< (bb):             0.00
                       o<<<<< (ab):             0.00
                       o<<<<< (total)           0.00
                       o<<<<< (aa) ff           0.00
                       o<<<<< (aa) gop          0.00
                       o<<<<< (aa) dot          0.00
                       o<<<<< (ab) str          0.00
                       o<<<<< (ab) gath         0.00
                       o<<<<< (ab) dotab        0.00
                       o<<<<< (ab) scat         0.00
                       o<<<<< (ab) sync         0.00
                       o<<<<< Density           0.00
                       o<<<<< Density one       0.00
                       o<<<<< Density two       0.00
                       o<<<<< Density ab        0.00
                       o<<<<< Spin adapt        0.00
                       o<<<<< Symm adapt        0.00

                       o<<<<< (ab) max sync:      0.00
       1.0000     -14.86696886 -7.64D-08 -7.64D-08  6.15D-07 1.1D-01      0.9

          Number of sigma calls:        4
                       o<<<<< (aa):             0.00
                       o<<<<< (bb):             0.00
                       o<<<<< (ab):             0.00
                       o<<<<< (total)           0.00
                       o<<<<< (aa) ff           0.00
                       o<<<<< (aa) gop          0.00
                       o<<<<< (aa) dot          0.00
                       o<<<<< (ab) str          0.00
                       o<<<<< (ab) gath         0.00
                       o<<<<< (ab) dotab        0.00
                       o<<<<< (ab) scat         0.00
                       o<<<<< (ab) sync         0.00
                       o<<<<< Density           0.00
                       o<<<<< Density one       0.00
                       o<<<<< Density two       0.00
                       o<<<<< Density ab        0.00
                       o<<<<< Spin adapt        0.00
                       o<<<<< Symm adapt        0.00

                       o<<<<< (ab) max sync:      0.00
       1.1242     -14.86696886 -4.88D-12 -4.72D-12  6.15D-07 7.1D-06      0.9
     --- Orbitals canonicalized ---



          %%%%% MacroIteration   2 %%%%%


          Number of sigma calls:        5
                       o<<<<< (aa):             0.00
                       o<<<<< (bb):             0.00
                       o<<<<< (ab):             0.00
                       o<<<<< (total)           0.00
                       o<<<<< (aa) ff           0.00
                       o<<<<< (aa) gop          0.00
                       o<<<<< (aa) dot          0.00
                       o<<<<< (ab) str          0.00
                       o<<<<< (ab) gath         0.00
                       o<<<<< (ab) dotab        0.00
                       o<<<<< (ab) scat         0.00
                       o<<<<< (ab) sync         0.00
                       o<<<<< Density           0.00
                       o<<<<< Density one       0.00
                       o<<<<< Density two       0.00
                       o<<<<< Density ab        0.00
                       o<<<<< Spin adapt        0.00
                       o<<<<< Symm adapt        0.00

                       o<<<<< (ab) max sync:      0.00

           >>>| Valence CI:            -15.776059770871
           >>>| MCSCF energy:          -14.866968861780
           >>>| Gradient norm:          0.949329219D-04




     ==============================
            MCSCF Converged
     ==============================



          Canonical Eigenvalues

              1      
    1   -2.4786
    2   -2.4786
    3   -0.1256
    4   -0.0694
    5    0.0263
    6    0.0263
    7    0.0325
    8    0.0432
    9    0.0432
   10    0.0484
   11    0.1028
   12    0.1093
   13    0.1170
   14    0.1170
   15    0.1250
   16    0.1250
   17    0.1279
   18    0.1399
   19    0.2051
   20    0.2051
   21    0.2221
   22    0.2221
   23    0.2355
   24    0.2355
   25    0.2370
   26    0.2716
   27    0.2716
   28    0.3159
   29    0.3611
   30    0.3611
   31    0.3748
   32    0.3748
   33    0.3793
   34    0.3973
   35    0.3978
   36    0.4622
   37    0.7113
   38    0.7113
   39    0.7234
   40    0.7234
   41    0.7347
   42    0.7347
   43    0.7353
   44    0.7377
   45    0.7377
   46    0.7414
   47    0.7506
   48    0.7506
   49    0.7515
   50    0.7515
   51    0.7516
   52    0.7516
   53    0.7519
   54    0.7519
   55    0.7562
   56    0.7562
   57    0.7685
   58    0.7994
   59    0.7994
   60    0.8916
   61    0.9292
   62    0.9292
   63    0.9360
   64    0.9360
   65    0.9584
   66    0.9659
   67    1.3579
   68    1.3791
   69    6.3541
   70    6.3697


          Converged CI vector

   Index           Coefficient          Config. Occupation
         1         -0.81918983          1  2  3  1  2  3
         6          0.57352135          1  2  4  1  2  4

          Number of sigma calls:        1
                       o<<<<< (aa):             0.00
                       o<<<<< (bb):             0.00
                       o<<<<< (ab):             0.00
                       o<<<<< (total)           0.00
                       o<<<<< (aa) ff           0.00
                       o<<<<< (aa) gop          0.00
                       o<<<<< (aa) dot          0.00
                       o<<<<< (ab) str          0.00
                       o<<<<< (ab) gath         0.00
                       o<<<<< (ab) dotab        0.00
                       o<<<<< (ab) scat         0.00
                       o<<<<< (ab) sync         0.00
                       o<<<<< Density           0.00
                       o<<<<< Density one       0.00
                       o<<<<< Density two       0.00
                       o<<<<< Density ab        0.00
                       o<<<<< Spin adapt        0.00
                       o<<<<< Symm adapt        0.00

                       o<<<<< (ab) max sync:      0.00



          Natural orbital occupation numbers

              1      
    1    2.0000
    2    2.0000
    3    1.3421
    4    0.6579


          Number of sigma calls:        5
                       o<<<<< (aa):             0.00
                       o<<<<< (bb):             0.00
                       o<<<<< (ab):             0.00
                       o<<<<< (total)           0.00
                       o<<<<< (aa) ff           0.00
                       o<<<<< (aa) gop          0.00
                       o<<<<< (aa) dot          0.00
                       o<<<<< (ab) str          0.00
                       o<<<<< (ab) gath         0.00
                       o<<<<< (ab) dotab        0.00
                       o<<<<< (ab) scat         0.00
                       o<<<<< (ab) sync         0.00
                       o<<<<< Density           0.00
                       o<<<<< Density one       0.00
                       o<<<<< Density two       0.00
                       o<<<<< Density ab        0.00
                       o<<<<< Spin adapt        0.00
                       o<<<<< Symm adapt        0.00

                       o<<<<< (ab) max sync:      0.00


       Final MCSCF results 
       ------------------- 

       Total MCSCF energy =    -14.866968861780
            Gradient norm =      9.5D-05

    CPU time for solution =      0.7s
   Wall time for solution =      1.3s



                        Analysis of MCSCF natural orbitals
                        ----------------------------------

 Vector    1  Occ=2.000000D+00  E=-2.478604D+00  Symmetry=a
              MO Center=  2.7D-13, -6.4D-08, -5.0D-14, r^2= 7.0D+00
   Bfn.  Coefficient  Atom+Function         Bfn.  Coefficient  Atom+Function  
  ----- ------------  ---------------      ----- ------------  ---------------
     1      0.704566  1 Li s                 36      0.704566  2 Li s          

 Vector    2  Occ=2.000000D+00  E=-2.478604D+00  Symmetry=a
              MO Center=  2.3D-13,  6.4D-08,  8.4D-14, r^2= 7.0D+00
   Bfn.  Coefficient  Atom+Function         Bfn.  Coefficient  Atom+Function  
  ----- ------------  ---------------      ----- ------------  ---------------
     1      0.704559  1 Li s                 36     -0.704559  2 Li s          

 Vector    3  Occ=1.342145D+00  E=-1.255999D-01  Symmetry=a
              MO Center=  1.0D-12, -6.7D-12, -2.7D-12, r^2= 1.1D+01
   Bfn.  Coefficient  Atom+Function         Bfn.  Coefficient  Atom+Function  
  ----- ------------  ---------------      ----- ------------  ---------------
     4      0.366141  1 Li s                 39      0.366141  2 Li s          
     3      0.363205  1 Li s                 38      0.363205  2 Li s          
     2      0.181485  1 Li s                 37      0.181485  2 Li s          

 Vector    4  Occ=6.578556D-01  E=-6.943560D-02  Symmetry=a
              MO Center=  2.6D-12, -1.4D-11,  8.4D-13, r^2= 1.2D+01
   Bfn.  Coefficient  Atom+Function         Bfn.  Coefficient  Atom+Function  
  ----- ------------  ---------------      ----- ------------  ---------------
     3      0.456005  1 Li s                 38     -0.456005  2 Li s          
     4      0.381296  1 Li s                 39     -0.381296  2 Li s          
     2      0.207326  1 Li s                 37     -0.207326  2 Li s          

 Vector    5  Occ=0.000000D+00  E= 2.625512D-02  Symmetry=a
              MO Center= -3.2D-12,  3.7D-11,  4.4D-12, r^2= 2.2D+01
   Bfn.  Coefficient  Atom+Function         Bfn.  Coefficient  Atom+Function  
  ----- ------------  ---------------      ----- ------------  ---------------
    13      0.527960  1 Li pz                48      0.527960  2 Li pz         
    11     -0.354133  1 Li px                46     -0.354133  2 Li px         

 Vector    6  Occ=0.000000D+00  E= 2.625512D-02  Symmetry=a
              MO Center= -2.2D-13,  3.6D-11,  2.2D-13, r^2= 2.2D+01
   Bfn.  Coefficient  Atom+Function         Bfn.  Coefficient  Atom+Function  
  ----- ------------  ---------------      ----- ------------  ---------------
    11      0.527960  1 Li px                46      0.527960  2 Li px         
    13      0.354133  1 Li pz                48      0.354133  2 Li pz         

 Vector    7  Occ=0.000000D+00  E= 3.247215D-02  Symmetry=a
              MO Center= -5.8D-13,  1.5D-10,  2.2D-13, r^2= 2.7D+01
   Bfn.  Coefficient  Atom+Function         Bfn.  Coefficient  Atom+Function  
  ----- ------------  ---------------      ----- ------------  ---------------
    12      0.656096  1 Li py                47     -0.656096  2 Li py         
     4     -0.418433  1 Li s                 39     -0.418433  2 Li s          

 Vector    8  Occ=0.000000D+00  E= 4.319283D-02  Symmetry=a
              MO Center= -3.5D-13, -3.5D-11, -4.2D-13, r^2= 2.9D+01
   Bfn.  Coefficient  Atom+Function         Bfn.  Coefficient  Atom+Function  
  ----- ------------  ---------------      ----- ------------  ---------------
    13      0.964418  1 Li pz                48     -0.964418  2 Li pz         
    10     -0.163724  1 Li pz                45      0.163724  2 Li pz         

 Vector    9  Occ=0.000000D+00  E= 4.319283D-02  Symmetry=a
              MO Center= -1.1D-11, -3.5D-11,  4.6D-13, r^2= 2.9D+01
   Bfn.  Coefficient  Atom+Function         Bfn.  Coefficient  Atom+Function  
  ----- ------------  ---------------      ----- ------------  ---------------
    11      0.964418  1 Li px                46     -0.964418  2 Li px         
     8     -0.163724  1 Li px                43      0.163724  2 Li px         

 Vector   10  Occ=0.000000D+00  E= 4.841832D-02  Symmetry=a
              MO Center=  6.4D-12, -1.2D-10,  8.0D-13, r^2= 4.5D+01
   Bfn.  Coefficient  Atom+Function         Bfn.  Coefficient  Atom+Function  
  ----- ------------  ---------------      ----- ------------  ---------------
    12      1.513635  1 Li py                47      1.513635  2 Li py         
     4      0.923348  1 Li s                 39     -0.923348  2 Li s          
     9     -0.299663  1 Li py                44     -0.299663  2 Li py         

 Vector   11  Occ=0.000000D+00  E= 1.028063D-01  Symmetry=a
              MO Center= -5.6D-12,  1.3D-11,  5.6D-13, r^2= 2.2D+01
   Bfn.  Coefficient  Atom+Function         Bfn.  Coefficient  Atom+Function  
  ----- ------------  ---------------      ----- ------------  ---------------
     4      1.835960  1 Li s                 39      1.835960  2 Li s          
     3     -1.476401  1 Li s                 38     -1.476401  2 Li s          
    23     -0.461409  1 Li dyy               58     -0.461409  2 Li dyy        
    20     -0.337790  1 Li dxx               25     -0.337790  1 Li dzz        
    55     -0.337790  2 Li dxx               60     -0.337790  2 Li dzz        

 Vector   12  Occ=0.000000D+00  E= 1.092669D-01  Symmetry=a
              MO Center= -2.5D-13,  3.8D-11,  1.6D-13, r^2= 2.4D+01
   Bfn.  Coefficient  Atom+Function         Bfn.  Coefficient  Atom+Function  
  ----- ------------  ---------------      ----- ------------  ---------------
     9      1.226413  1 Li py                44     -1.226413  2 Li py         
    12     -0.979039  1 Li py                47      0.979039  2 Li py         

 Vector   13  Occ=0.000000D+00  E= 1.169583D-01  Symmetry=a
              MO Center=  2.1D-12,  8.1D-11, -4.5D-12, r^2= 2.0D+01
   Bfn.  Coefficient  Atom+Function         Bfn.  Coefficient  Atom+Function  
  ----- ------------  ---------------      ----- ------------  ---------------
    10      1.082099  1 Li pz                45      1.082099  2 Li pz         
    13     -0.676951  1 Li pz                48     -0.676951  2 Li pz         
     8     -0.594391  1 Li px                43     -0.594391  2 Li px         
    11      0.371846  1 Li px                46      0.371846  2 Li px         

 Vector   14  Occ=0.000000D+00  E= 1.169583D-01  Symmetry=a
              MO Center=  4.1D-12,  8.2D-11,  2.6D-12, r^2= 2.0D+01
   Bfn.  Coefficient  Atom+Function         Bfn.  Coefficient  Atom+Function  
  ----- ------------  ---------------      ----- ------------  ---------------
     8      1.082099  1 Li px                43      1.082099  2 Li px         
    11     -0.676951  1 Li px                46     -0.676951  2 Li px         
    10      0.594391  1 Li pz                45      0.594391  2 Li pz         
    13     -0.371846  1 Li pz                48     -0.371846  2 Li pz         


 Wrote Lagrangian and 1- and 2-particle density matrices to ./Li2.mcpdm


     Multipole analysis of the density
     ---------------------------------

     L   x y z        total        nuclear
     -   - - -        -----        -------
     0   0 0 0     -0.000000      6.000000

     1   1 0 0     -0.000000      0.000000
     1   0 1 0      0.000000      0.000000
     1   0 0 1      0.000000      0.000000

     2   2 0 0    -12.510238      0.000000
     2   1 1 0     -0.000000      0.000000
     2   1 0 1     -0.000000      0.000000
     2   0 2 0     -9.842736    147.015000
     2   0 1 1      0.000000      0.000000
     2   0 0 2    -12.510238      0.000000


  Mulliken analysis of the total density
  --------------------------------------

    Atom       Charge   Shell Charges
 -----------   ------   -------------------------------------------------------
    1 Li   3     3.00   1.99 -0.01  0.51  0.52  0.00 -0.00  0.00 -0.00 -0.00 -0.00
    2 Li   3     3.00   1.99 -0.01  0.51  0.52  0.00 -0.00  0.00 -0.00 -0.00 -0.00

    Mulliken analysis of the active space density
    ---------------------------------------------

    Atom       Charge   Shell Charges
 -----------   ------   -------------------------------------------------------
    1 Li   3     3.00   1.99 -0.01  0.51  0.52  0.00 -0.00  0.00 -0.00 -0.00 -0.00
    2 Li   3     3.00   1.99 -0.01  0.51  0.52  0.00 -0.00  0.00 -0.00 -0.00 -0.00

 Parallel integral file used      19 records with       0 large values


 Task  times  cpu:        0.7s     wall:        1.3s


                                NWChem Input Module
                                -------------------


                                 NWChem SCF Module
                                 -----------------


                                        Li2



  ao basis        = "ao basis"
  functions       =    70
  atoms           =     2
  closed shells   =     3
  open shells     =     0
  charge          =   0.00
  wavefunction    = RHF 
  input vectors   = ./Li2.mos
  output vectors  = ./Li2-9.9.mos
  use symmetry    = F
  symmetry adapt  = F


 Summary of "ao basis" -> "ao basis" (cartesian)
 ------------------------------------------------------------------------------
       Tag                 Description            Shells   Functions and Types
 ---------------- ------------------------------  ------  ---------------------
 Li                         cc-pVTZ                 10       35   4s3p2d1f



 Forming initial guess at       1.3s


 Loading old vectors from job with title :

Li2


 Starting SCF solution at       1.4s



 ----------------------------------------------
         Quadratically convergent ROHF

 Convergence threshold     :          1.000E-04
 Maximum no. of iterations :           30
 Final Fock-matrix accuracy:          1.000E-07
 ----------------------------------------------


 Integral file          = ./Li2.aoints.0
 Record size in doubles =  65536        No. of integs per rec  =  43688
 Max. records in memory =     99        Max. records in file   = 280103
 No. of bits per label  =      8        No. of bits per value  =     64


 #quartets = 2.123D+04 #integrals = 8.172D+05 #direct =  0.0% #cached =100.0%



       Final RHF  results 
       ------------------ 

         Total SCF energy =    -14.819658621411
      One-electron energy =    -21.242721161435
      Two-electron energy =      5.513971630933
 Nuclear repulsion energy =      0.909090909091

        Time for solution =      0.2s


             Final eigenvalues
             -----------------

              1      
    1   -2.4786
    2   -2.4786
    3   -0.1256
    4   -0.0694
    5    0.0263
    6    0.0263
    7    0.0325
    8    0.0432
    9    0.0432
   10    0.0484
   11    0.1028
   12    0.1093
   13    0.1170

                       ROHF Final Molecular Orbital Analysis
                       -------------------------------------

 Vector    2  Occ=2.000000D+00  E=-2.478604D+00
              MO Center=  2.3D-13,  6.4D-08,  8.4D-14, r^2= 7.0D+00
   Bfn.  Coefficient  Atom+Function         Bfn.  Coefficient  Atom+Function  
  ----- ------------  ---------------      ----- ------------  ---------------
     1      0.704559  1 Li s                 36     -0.704559  2 Li s          

 Vector    3  Occ=2.000000D+00  E=-1.255999D-01
              MO Center=  1.0D-12, -6.7D-12, -2.7D-12, r^2= 1.1D+01
   Bfn.  Coefficient  Atom+Function         Bfn.  Coefficient  Atom+Function  
  ----- ------------  ---------------      ----- ------------  ---------------
     4      0.366141  1 Li s                 39      0.366141  2 Li s          
     3      0.363205  1 Li s                 38      0.363205  2 Li s          
     2      0.181485  1 Li s                 37      0.181485  2 Li s          

 Vector    4  Occ=0.000000D+00  E=-6.943560D-02
              MO Center=  2.6D-12, -1.4D-11,  8.4D-13, r^2= 1.2D+01
   Bfn.  Coefficient  Atom+Function         Bfn.  Coefficient  Atom+Function  
  ----- ------------  ---------------      ----- ------------  ---------------
     3      0.456005  1 Li s                 38     -0.456005  2 Li s          
     4      0.381296  1 Li s                 39     -0.381296  2 Li s          
     2      0.207326  1 Li s                 37     -0.207326  2 Li s          

 Vector    5  Occ=0.000000D+00  E= 2.625512D-02
              MO Center= -3.2D-12,  3.7D-11,  4.4D-12, r^2= 2.2D+01
   Bfn.  Coefficient  Atom+Function         Bfn.  Coefficient  Atom+Function  
  ----- ------------  ---------------      ----- ------------  ---------------
    13      0.527960  1 Li pz                48      0.527960  2 Li pz         
    11     -0.354133  1 Li px                46     -0.354133  2 Li px         

 Vector    6  Occ=0.000000D+00  E= 2.625512D-02
              MO Center= -2.2D-13,  3.6D-11,  2.2D-13, r^2= 2.2D+01
   Bfn.  Coefficient  Atom+Function         Bfn.  Coefficient  Atom+Function  
  ----- ------------  ---------------      ----- ------------  ---------------
    11      0.527960  1 Li px                46      0.527960  2 Li px         
    13      0.354133  1 Li pz                48      0.354133  2 Li pz         

 Vector    7  Occ=0.000000D+00  E= 3.247215D-02
              MO Center= -5.8D-13,  1.5D-10,  2.2D-13, r^2= 2.7D+01
   Bfn.  Coefficient  Atom+Function         Bfn.  Coefficient  Atom+Function  
  ----- ------------  ---------------      ----- ------------  ---------------
    12      0.656096  1 Li py                47     -0.656096  2 Li py         
     4     -0.418433  1 Li s                 39     -0.418433  2 Li s          

 Vector    8  Occ=0.000000D+00  E= 4.319283D-02
              MO Center= -3.5D-13, -3.5D-11, -4.2D-13, r^2= 2.9D+01
   Bfn.  Coefficient  Atom+Function         Bfn.  Coefficient  Atom+Function  
  ----- ------------  ---------------      ----- ------------  ---------------
    13      0.964418  1 Li pz                48     -0.964418  2 Li pz         
    10     -0.163724  1 Li pz                45      0.163724  2 Li pz         

 Vector    9  Occ=0.000000D+00  E= 4.319283D-02
              MO Center= -1.1D-11, -3.5D-11,  4.6D-13, r^2= 2.9D+01
   Bfn.  Coefficient  Atom+Function         Bfn.  Coefficient  Atom+Function  
  ----- ------------  ---------------      ----- ------------  ---------------
    11      0.964418  1 Li px                46     -0.964418  2 Li px         
     8     -0.163724  1 Li px                43      0.163724  2 Li px         

 Vector   10  Occ=0.000000D+00  E= 4.841832D-02
              MO Center=  6.4D-12, -1.2D-10,  8.0D-13, r^2= 4.5D+01
   Bfn.  Coefficient  Atom+Function         Bfn.  Coefficient  Atom+Function  
  ----- ------------  ---------------      ----- ------------  ---------------
    12      1.513635  1 Li py                47      1.513635  2 Li py         
     4      0.923348  1 Li s                 39     -0.923348  2 Li s          
     9     -0.299663  1 Li py                44     -0.299663  2 Li py         

 Vector   11  Occ=0.000000D+00  E= 1.028063D-01
              MO Center= -5.6D-12,  1.3D-11,  5.6D-13, r^2= 2.2D+01
   Bfn.  Coefficient  Atom+Function         Bfn.  Coefficient  Atom+Function  
  ----- ------------  ---------------      ----- ------------  ---------------
     4      1.835960  1 Li s                 39      1.835960  2 Li s          
     3     -1.476401  1 Li s                 38     -1.476401  2 Li s          
    23     -0.461409  1 Li dyy               58     -0.461409  2 Li dyy        
    20     -0.337790  1 Li dxx               25     -0.337790  1 Li dzz        
    55     -0.337790  2 Li dxx               60     -0.337790  2 Li dzz        

 Vector   12  Occ=0.000000D+00  E= 1.092669D-01
              MO Center= -2.5D-13,  3.8D-11,  1.6D-13, r^2= 2.4D+01
   Bfn.  Coefficient  Atom+Function         Bfn.  Coefficient  Atom+Function  
  ----- ------------  ---------------      ----- ------------  ---------------
     9      1.226413  1 Li py                44     -1.226413  2 Li py         
    12     -0.979039  1 Li py                47      0.979039  2 Li py         

 Vector   13  Occ=0.000000D+00  E= 1.169583D-01
              MO Center=  2.1D-12,  8.1D-11, -4.5D-12, r^2= 2.0D+01
   Bfn.  Coefficient  Atom+Function         Bfn.  Coefficient  Atom+Function  
  ----- ------------  ---------------      ----- ------------  ---------------
    10      1.082099  1 Li pz                45      1.082099  2 Li pz         
    13     -0.676951  1 Li pz                48     -0.676951  2 Li pz         
     8     -0.594391  1 Li px                43     -0.594391  2 Li px         
    11      0.371846  1 Li px                46      0.371846  2 Li px         

 Vector   14  Occ=0.000000D+00  E= 1.169583D-01
              MO Center=  4.1D-12,  8.2D-11,  2.6D-12, r^2= 2.0D+01
   Bfn.  Coefficient  Atom+Function         Bfn.  Coefficient  Atom+Function  
  ----- ------------  ---------------      ----- ------------  ---------------
     8      1.082099  1 Li px                43      1.082099  2 Li px         
    11     -0.676951  1 Li px                46     -0.676951  2 Li px         
    10      0.594391  1 Li pz                45      0.594391  2 Li pz         
    13     -0.371846  1 Li pz                48     -0.371846  2 Li pz         

 Vector   15  Occ=0.000000D+00  E= 1.249747D-01
              MO Center= -1.5D-12, -7.9D-11,  3.5D-12, r^2= 2.2D+01
   Bfn.  Coefficient  Atom+Function         Bfn.  Coefficient  Atom+Function  
  ----- ------------  ---------------      ----- ------------  ---------------
    10      1.221167  1 Li pz                45     -1.221167  2 Li pz         
    13     -1.009883  1 Li pz                48      1.009883  2 Li pz         
     8     -0.342663  1 Li px                43      0.342663  2 Li px         
    11      0.283376  1 Li px                46     -0.283376  2 Li px         

 Vector   16  Occ=0.000000D+00  E= 1.249747D-01
              MO Center= -3.2D-12, -8.0D-11, -5.7D-13, r^2= 2.2D+01
   Bfn.  Coefficient  Atom+Function         Bfn.  Coefficient  Atom+Function  
  ----- ------------  ---------------      ----- ------------  ---------------
     8      1.221167  1 Li px                43     -1.221167  2 Li px         
    11     -1.009883  1 Li px                46      1.009883  2 Li px         
    10      0.342663  1 Li pz                45     -0.342663  2 Li pz         
    13     -0.283376  1 Li pz                48      0.283376  2 Li pz         

 Vector   17  Occ=0.000000D+00  E= 1.279012D-01
              MO Center=  2.8D-12, -3.4D-11, -2.6D-12, r^2= 2.0D+01
   Bfn.  Coefficient  Atom+Function         Bfn.  Coefficient  Atom+Function  
  ----- ------------  ---------------      ----- ------------  ---------------
     4      1.785991  1 Li s                 39     -1.785991  2 Li s          
     3     -1.079496  1 Li s                 38      1.079496  2 Li s          
     9      0.933358  1 Li py                44      0.933358  2 Li py         
    23     -0.332745  1 Li dyy               58      0.332745  2 Li dyy        
    20     -0.233114  1 Li dxx               25     -0.233114  1 Li dzz        

 Vector   18  Occ=0.000000D+00  E= 1.399086D-01
              MO Center=  8.0D-13, -1.8D-11, -7.2D-13, r^2= 2.4D+01
   Bfn.  Coefficient  Atom+Function         Bfn.  Coefficient  Atom+Function  
  ----- ------------  ---------------      ----- ------------  ---------------
     4      3.316844  1 Li s                 39     -3.316844  2 Li s          
     3     -1.743140  1 Li s                 38      1.743140  2 Li s          
    12      1.528971  1 Li py                47      1.528971  2 Li py         
     9     -0.752547  1 Li py                44     -0.752547  2 Li py         
    20     -0.434896  1 Li dxx               25     -0.434896  1 Li dzz        

 Vector   19  Occ=0.000000D+00  E= 2.050998D-01
              MO Center= -1.1D-13,  1.0D-11, -2.2D-13, r^2= 1.4D+01
   Bfn.  Coefficient  Atom+Function         Bfn.  Coefficient  Atom+Function  
  ----- ------------  ---------------      ----- ------------  ---------------
    24      1.319107  1 Li dyz               59     -1.319107  2 Li dyz        
    18     -0.273409  1 Li dyz               53      0.273409  2 Li dyz        

 Vector   20  Occ=0.000000D+00  E= 2.050998D-01
              MO Center=  5.3D-13,  1.0D-11,  8.2D-14, r^2= 1.4D+01
   Bfn.  Coefficient  Atom+Function         Bfn.  Coefficient  Atom+Function  
  ----- ------------  ---------------      ----- ------------  ---------------
    21      1.319107  1 Li dxy               56     -1.319107  2 Li dxy        
    15     -0.273409  1 Li dxy               50      0.273409  2 Li dxy        

 Vector   21  Occ=0.000000D+00  E= 2.221187D-01
              MO Center=  6.0D-13,  5.9D-11, -1.4D-13, r^2= 1.4D+01
   Bfn.  Coefficient  Atom+Function         Bfn.  Coefficient  Atom+Function  
  ----- ------------  ---------------      ----- ------------  ---------------
    20      0.703486  1 Li dxx               25     -0.703486  1 Li dzz        
    55      0.703486  2 Li dxx               60     -0.703486  2 Li dzz        

 Vector   22  Occ=0.000000D+00  E= 2.221187D-01
              MO Center=  6.0D-13,  6.0D-11, -1.5D-13, r^2= 1.4D+01
   Bfn.  Coefficient  Atom+Function         Bfn.  Coefficient  Atom+Function  
  ----- ------------  ---------------      ----- ------------  ---------------
    22      1.406973  1 Li dxz               57      1.406973  2 Li dxz        
    16     -0.290060  1 Li dxz               51     -0.290060  2 Li dxz        

 Vector   23  Occ=0.000000D+00  E= 2.354955D-01
              MO Center=  5.6D-13, -6.0D-11, -1.5D-13, r^2= 1.4D+01
   Bfn.  Coefficient  Atom+Function         Bfn.  Coefficient  Atom+Function  
  ----- ------------  ---------------      ----- ------------  ---------------
    22      1.428438  1 Li dxz               57     -1.428438  2 Li dxz        
    16     -0.275375  1 Li dxz               51      0.275375  2 Li dxz        

 Vector   24  Occ=0.000000D+00  E= 2.354955D-01
              MO Center=  5.6D-13, -5.9D-11, -1.5D-13, r^2= 1.4D+01
   Bfn.  Coefficient  Atom+Function         Bfn.  Coefficient  Atom+Function  
  ----- ------------  ---------------      ----- ------------  ---------------
    20      0.714219  1 Li dxx               25     -0.714219  1 Li dzz        
    55     -0.714219  2 Li dxx               60      0.714219  2 Li dzz        

 Vector   25  Occ=0.000000D+00  E= 2.370225D-01
              MO Center=  1.3D-13,  5.1D-12, -3.7D-14, r^2= 1.5D+01
   Bfn.  Coefficient  Atom+Function         Bfn.  Coefficient  Atom+Function  
  ----- ------------  ---------------      ----- ------------  ---------------
    23      0.715845  1 Li dyy               58      0.715845  2 Li dyy        
     9     -0.508716  1 Li py                44      0.508716  2 Li py         
    20     -0.384377  1 Li dxx               25     -0.384377  1 Li dzz        
    55     -0.384377  2 Li dxx               60     -0.384377  2 Li dzz        
    12      0.359066  1 Li py                47     -0.359066  2 Li py         

 Vector   26  Occ=0.000000D+00  E= 2.716143D-01
              MO Center= -1.2D-13, -1.2D-11, -1.8D-13, r^2= 1.5D+01
   Bfn.  Coefficient  Atom+Function         Bfn.  Coefficient  Atom+Function  
  ----- ------------  ---------------      ----- ------------  ---------------
    24      1.532613  1 Li dyz               59      1.532613  2 Li dyz        
    13      0.256154  1 Li pz                18     -0.256812  1 Li dyz        
    48     -0.256154  2 Li pz                53     -0.256812  2 Li dyz        

 Vector   27  Occ=0.000000D+00  E= 2.716143D-01
              MO Center=  5.7D-13, -1.2D-11,  7.4D-14, r^2= 1.5D+01
   Bfn.  Coefficient  Atom+Function         Bfn.  Coefficient  Atom+Function  
  ----- ------------  ---------------      ----- ------------  ---------------
    21      1.532613  1 Li dxy               56      1.532613  2 Li dxy        
    11      0.256154  1 Li px                15     -0.256812  1 Li dxy        
    46     -0.256154  2 Li px                50     -0.256812  2 Li dxy        

 Vector   28  Occ=0.000000D+00  E= 3.159275D-01
              MO Center= -1.8D-13, -1.6D-12,  6.9D-14, r^2= 1.8D+01
   Bfn.  Coefficient  Atom+Function         Bfn.  Coefficient  Atom+Function  
  ----- ------------  ---------------      ----- ------------  ---------------
     4      1.601355  1 Li s                 39     -1.601355  2 Li s          
    12      0.899852  1 Li py                47      0.899852  2 Li py         
    23      0.724825  1 Li dyy               58     -0.724825  2 Li dyy        
     3     -0.677779  1 Li s                 38      0.677779  2 Li s          
    20     -0.577364  1 Li dxx               25     -0.577364  1 Li dzz        

 Vector   29  Occ=0.000000D+00  E= 3.610834D-01
              MO Center= -1.3D-12,  5.0D-11,  3.3D-12, r^2= 1.4D+01
   Bfn.  Coefficient  Atom+Function         Bfn.  Coefficient  Atom+Function  
  ----- ------------  ---------------      ----- ------------  ---------------
    10      1.412314  1 Li pz                45      1.412314  2 Li pz         
     7     -0.606093  1 Li pz                42     -0.606093  2 Li pz         
    28     -0.499626  1 Li fxxz              35     -0.499626  1 Li fzzz       
    63     -0.499626  2 Li fxxz              70     -0.499626  2 Li fzzz       
    13     -0.462941  1 Li pz                33     -0.462401  1 Li fyyz       

 Vector   30  Occ=0.000000D+00  E= 3.610834D-01
              MO Center= -4.6D-12,  5.1D-11, -1.3D-12, r^2= 1.4D+01
   Bfn.  Coefficient  Atom+Function         Bfn.  Coefficient  Atom+Function  
  ----- ------------  ---------------      ----- ------------  ---------------
     8      1.412314  1 Li px                43      1.412314  2 Li px         
     5     -0.606093  1 Li px                40     -0.606093  2 Li px         
    26     -0.499626  1 Li fxxx              31     -0.499626  1 Li fxzz       
    61     -0.499626  2 Li fxxx              66     -0.499626  2 Li fxzz       
    11     -0.462941  1 Li px                29     -0.462401  1 Li fxyy       

 Vector   31  Occ=0.000000D+00  E= 3.748260D-01
              MO Center= -1.0D-12, -5.0D-11,  2.4D-12, r^2= 1.5D+01
   Bfn.  Coefficient  Atom+Function         Bfn.  Coefficient  Atom+Function  
  ----- ------------  ---------------      ----- ------------  ---------------
    10      1.551355  1 Li pz                45     -1.551355  2 Li pz         
    13     -0.634145  1 Li pz                48      0.634145  2 Li pz         
     7     -0.625887  1 Li pz                42      0.625887  2 Li pz         
    33     -0.555340  1 Li fyyz              68      0.555340  2 Li fyyz       
    28     -0.501907  1 Li fxxz              35     -0.501907  1 Li fzzz       

 Vector   32  Occ=0.000000D+00  E= 3.748260D-01
              MO Center= -2.8D-12, -5.0D-11, -7.8D-13, r^2= 1.5D+01
   Bfn.  Coefficient  Atom+Function         Bfn.  Coefficient  Atom+Function  
  ----- ------------  ---------------      ----- ------------  ---------------
     8      1.551355  1 Li px                43     -1.551355  2 Li px         
    11     -0.634145  1 Li px                46      0.634145  2 Li px         
     5     -0.625887  1 Li px                40      0.625887  2 Li px         
    29     -0.555340  1 Li fxyy              64      0.555340  2 Li fxyy       
    26     -0.501907  1 Li fxxx              31     -0.501907  1 Li fxzz       

 Vector   33  Occ=0.000000D+00  E= 3.792940D-01
              MO Center= -3.1D-13,  3.7D-11,  5.8D-14, r^2= 1.5D+01
   Bfn.  Coefficient  Atom+Function         Bfn.  Coefficient  Atom+Function  
  ----- ------------  ---------------      ----- ------------  ---------------
     9      1.449286  1 Li py                44     -1.449286  2 Li py         
     6     -0.664594  1 Li py                41      0.664594  2 Li py         
    12     -0.561320  1 Li py                47      0.561320  2 Li py         
    32     -0.493252  1 Li fyyy              67      0.493252  2 Li fyyy       
    27     -0.483867  1 Li fxxy              34     -0.483867  1 Li fyzz       

 Vector   34  Occ=0.000000D+00  E= 3.973068D-01
              MO Center=  2.4D-12,  1.8D-09, -1.3D-12, r^2= 1.8D+01
   Bfn.  Coefficient  Atom+Function         Bfn.  Coefficient  Atom+Function  
  ----- ------------  ---------------      ----- ------------  ---------------
     4      2.086763  1 Li s                 39     -2.086763  2 Li s          
     9      1.528652  1 Li py                44      1.528652  2 Li py         
    20     -0.934102  1 Li dxx               25     -0.934102  1 Li dzz        
    55      0.934102  2 Li dxx               60      0.934102  2 Li dzz        
     3     -0.602409  1 Li s                 38      0.602409  2 Li s          

 Vector   35  Occ=0.000000D+00  E= 3.977896D-01
              MO Center=  5.3D-12, -1.8D-09, -2.0D-12, r^2= 1.4D+01
   Bfn.  Coefficient  Atom+Function         Bfn.  Coefficient  Atom+Function  
  ----- ------------  ---------------      ----- ------------  ---------------
     4      1.434418  1 Li s                 39      1.434418  2 Li s          
    20     -0.977261  1 Li dxx               25     -0.977261  1 Li dzz        
    55     -0.977261  2 Li dxx               60     -0.977261  2 Li dzz        
    23     -0.770208  1 Li dyy               58     -0.770208  2 Li dyy        
    14      0.342996  1 Li dxx               19      0.342996  1 Li dzz        

 Vector   36  Occ=0.000000D+00  E= 4.621809D-01
              MO Center=  1.1D-12, -7.9D-13, -6.5D-13, r^2= 1.1D+01
   Bfn.  Coefficient  Atom+Function         Bfn.  Coefficient  Atom+Function  
  ----- ------------  ---------------      ----- ------------  ---------------
     4      1.851332  1 Li s                 39     -1.851332  2 Li s          
     9     -1.344054  1 Li py                44     -1.344054  2 Li py         
    23     -1.317868  1 Li dyy               58      1.317868  2 Li dyy        
    20     -0.707903  1 Li dxx               25     -0.707903  1 Li dzz        
    55      0.707903  2 Li dxx               60      0.707903  2 Li dzz        

 Vector   37  Occ=0.000000D+00  E= 7.112714D-01
              MO Center= -8.3D-13,  1.8D-11,  2.0D-13, r^2= 1.2D+01
   Bfn.  Coefficient  Atom+Function         Bfn.  Coefficient  Atom+Function  
  ----- ------------  ---------------      ----- ------------  ---------------
    18      1.455419  1 Li dyz               53     -1.455419  2 Li dyz        
    33     -0.887737  1 Li fyyz              68     -0.887737  2 Li fyyz       
    24     -0.801396  1 Li dyz               59      0.801396  2 Li dyz        
    28      0.222421  1 Li fxxz              35      0.222421  1 Li fzzz       
    63      0.222421  2 Li fxxz              70      0.222421  2 Li fzzz       


 center of mass
 --------------
 x =   0.00000000 y =   0.00000000 z =   0.00000000

 moments of inertia (a.u.)
 ------------------
         343.819080000000           0.000000000000           0.000000000000
           0.000000000000           0.000000000000           0.000000000000
           0.000000000000           0.000000000000         343.819080000000

  Mulliken analysis of the total density
  --------------------------------------

    Atom       Charge   Shell Charges
 -----------   ------   -------------------------------------------------------
    1 Li   3     3.00   1.99 -0.01  0.47  0.56  0.00  0.00  0.00  0.00 -0.01 -0.00
    2 Li   3     3.00   1.99 -0.01  0.47  0.56  0.00  0.00  0.00  0.00 -0.01 -0.00

       Multipole analysis of the density wrt the origin
       ------------------------------------------------

     L   x y z        total         open         nuclear
     -   - - -        -----         ----         -------
     0   0 0 0     -0.000000      0.000000      6.000000

     1   1 0 0     -0.000000      0.000000      0.000000
     1   0 1 0      0.000000      0.000000      0.000000
     1   0 0 1      0.000000      0.000000      0.000000

     2   2 0 0    -12.848806      0.000000      0.000000
     2   1 1 0     -0.000000      0.000000      0.000000
     2   1 0 1      0.000000      0.000000      0.000000
     2   0 2 0     -5.996740      0.000000    147.015000
     2   0 1 1      0.000000      0.000000      0.000000
     2   0 0 2    -12.848806      0.000000      0.000000


 Parallel integral file used      19 records with       0 large values

                   NWChem Extensible Many-Electron Theory Module
                   ---------------------------------------------

              ======================================================
                   This portion of the program was automatically
                  generated by a Tensor Contraction Engine (TCE).
                  The development of this portion of the program
                 and TCE was supported by US Department of Energy,
                Office of Science, Office of Basic Energy Science.
                      TCE is a product of Battelle and PNNL.
              Please cite: S.Hirata, J.Phys.Chem.A 107, 9887 (2003).
              ======================================================

                                        Li2


            General Information
            -------------------
      Number of processors :     1
         Wavefunction type : Restricted Hartree-Fock
          No. of electrons :     6
           Alpha electrons :     3
            Beta electrons :     3
           No. of orbitals :   140
            Alpha orbitals :    70
             Beta orbitals :    70
        Alpha frozen cores :     0
         Beta frozen cores :     0
     Alpha frozen virtuals :     0
      Beta frozen virtuals :     0
         Spin multiplicity : singlet 
    Number of AO functions :    70
       Number of AO shells :    20
        Use of symmetry is : off
      Symmetry adaption is : off
         Schwarz screening : 0.10D-09

          Correlation Information
          -----------------------
          Calculation type : Coupled-cluster singles & doubles                           
   Perturbative correction : none                                                        
            Max iterations :      300
        Residual threshold : 0.10D-06
     T(0) DIIS level shift : 0.30D+00
     L(0) DIIS level shift : 0.00D+00
     T(1) DIIS level shift : 0.00D+00
     L(1) DIIS level shift : 0.00D+00
     T(R) DIIS level shift : 0.00D+00
     T(I) DIIS level shift : 0.00D+00
   CC-T/L Amplitude update :  5-th order DIIS
                I/O scheme : Global Array Library
        L-threshold :  0.10D-06
        EOM-threshold :  0.10D-06
 no EOMCCSD initial starts read in
 TCE RESTART OPTIONS
 READ_INT:   F
 WRITE_INT:  F
 READ_TA:    F
 WRITE_TA:   F
 READ_XA:    F
 WRITE_XA:   F
 READ_IN3:   F
 WRITE_IN3:  F
 SLICE:      F
 D4D5:       F
 quantumc:   F
 qrotation:  F
 pwtce:      F
 qducc:      T
 nacto:                         0
 nrotv:                         0
 nrot:                          0

            Memory Information
            ------------------
          Available GA space size is    1610607836 doubles
          Available MA space size is    1610609956 doubles

 Maximum block size        32 doubles

 tile_dim =     23

 Block   Spin    Irrep     Size     Offset   Alpha
 -------------------------------------------------
   1    alpha     a      3 doubles       0       1
   2    beta      a      3 doubles       3       1
   3    alpha     a     22 doubles       6       3
   4    alpha     a     22 doubles      28       4
   5    alpha     a     23 doubles      50       5
   6    beta      a     22 doubles      73       3
   7    beta      a     22 doubles      95       4
   8    beta      a     23 doubles     117       5

 Global array virtual files algorithm will be used

 Parallel file system coherency ......... OK

 Integral file          = ./Li2.aoints.0
 Record size in doubles =  65536        No. of integs per rec  =  43688
 Max. records in memory =     99        Max. records in file   = 280103
 No. of bits per label  =      8        No. of bits per value  =     64


 #quartets = 2.132D+04 #integrals = 8.485D+05 #direct =  0.0% #cached =100.0%


 Fock matrix recomputed
 1-e file size   =             4900
 1-e file name   = ./Li2.f1
 Cpu & wall time / sec            0.2            0.2
 4-electron integrals stored in orbital form

 v2    file size   =          5883722
 4-index algorithm nr.  13 is used
 imaxsize =       30
 imaxsize ichop =        0
 Cpu & wall time / sec            2.7            2.7
 T1-number-of-tasks                    3

 t1 file size   =              201
 t1 file name   = ./Li2.t1
 t1 file handle =       -998
 T2-number-of-boxes                   15

 t2 file size   =            67338
 t2 file name   = ./Li2.t2
 t2 file handle =       -996
CCSD iterations
 ---------------------------------------------------------
 Iter          Residuum       Correlation     Cpu    Wall 
 ---------------------------------------------------------
NEW TASK SCHEDULING
CCSD_T1_NTS --- OK
CCSD_T2_NTS --- OK
    1   0.1274647274215  -0.0841465404299     0.2     0.2
    2   0.0310400670746  -0.0813163260988     0.2     0.2
    3   0.0154210170078  -0.0808300581270     0.2     0.2
    4   0.0105525436482  -0.0807201519922     0.2     0.2
    5   0.0080099700079  -0.0807535207402     0.2     0.2
 MICROCYCLE DIIS UPDATE:                    5                    5
    6   0.0030038502762  -0.0811622643906     0.2     0.2
    7   0.0020120668662  -0.0813509277824     0.2     0.2
    8   0.0016038912311  -0.0814536195550     0.2     0.2
    9   0.0013228354875  -0.0815248392915     0.2     0.2
   10   0.0011061333688  -0.0815789020606     0.2     0.2
 MICROCYCLE DIIS UPDATE:                   10                    5
   11   0.0002236273655  -0.0818214979961     0.2     0.2
   12   0.0001408566991  -0.0818257151110     0.2     0.2
   13   0.0001062868658  -0.0818285372908     0.2     0.2
   14   0.0000835470489  -0.0818306904147     0.2     0.2
   15   0.0000671848507  -0.0818325075858     0.2     0.2
 MICROCYCLE DIIS UPDATE:                   15                    5
   16   0.0000224121026  -0.0818405280653     0.2     0.2
   17   0.0000159236828  -0.0818415765895     0.2     0.2
   18   0.0000134003934  -0.0818423095739     0.2     0.2
   19   0.0000115916850  -0.0818428901020     0.2     0.2
   20   0.0000101393896  -0.0818433734974     0.2     0.2
 MICROCYCLE DIIS UPDATE:                   20                    5
   21   0.0000034509920  -0.0818463060251     0.2     0.2
   22   0.0000023835076  -0.0818463751814     0.2     0.2
   23   0.0000019608497  -0.0818464167315     0.2     0.2
   24   0.0000016738648  -0.0818464492489     0.2     0.2
   25   0.0000014546068  -0.0818464780973     0.2     0.2
 MICROCYCLE DIIS UPDATE:                   25                    5
   26   0.0000005756317  -0.0818466713756     0.2     0.2
   27   0.0000003819768  -0.0818466912746     0.0     0.2
   28   0.0000003159226  -0.0818467053281     0.0     0.2
   29   0.0000002722342  -0.0818467163001     0.1     0.2
   30   0.0000002389592  -0.0818467253950     0.2     0.2
 MICROCYCLE DIIS UPDATE:                   30                    5
   31   0.0000001044971  -0.0818467785127     0.2     0.2
   32   0.0000000715031  -0.0818467811264     0.2     0.2
 -----------------------------------------------------------------
 Iterations converged
 CCSD correlation energy / hartree =        -0.081846781126410
 CCSD total energy / hartree       =       -14.901505402537556

 Singles contributions
     7a   (alpha) ---     3a   (alpha)        0.0217497004

 Doubles contributions
     4a   (alpha)     4a   (beta ) ---     3a   (alpha)     3a   (beta )       -0.6057780008
     5a   (alpha)     5a   (beta ) ---     3a   (alpha)     3a   (beta )       -0.0464231627
     5a   (alpha)    13a   (beta ) ---     3a   (alpha)     3a   (beta )       -0.0284514964
     6a   (alpha)     6a   (beta ) ---     3a   (alpha)     3a   (beta )       -0.0464231627
     6a   (alpha)    14a   (beta ) ---     3a   (alpha)     3a   (beta )       -0.0284514964
     7a   (alpha)     7a   (beta ) ---     3a   (alpha)     3a   (beta )       -0.0573305147
     7a   (alpha)    12a   (beta ) ---     3a   (alpha)     3a   (beta )       -0.0424658809
    12a   (alpha)     7a   (beta ) ---     3a   (alpha)     3a   (beta )       -0.0424658809
    12a   (alpha)    12a   (beta ) ---     3a   (alpha)     3a   (beta )       -0.0343653083
    13a   (alpha)     5a   (beta ) ---     3a   (alpha)     3a   (beta )       -0.0284514964
    14a   (alpha)     6a   (beta ) ---     3a   (alpha)     3a   (beta )       -0.0284514964
 Ground state specification:
 exp(T)|Ref>~(1+T)|Ref>
 ------- a(p)+/a(q) strings ----------

 singles norm

 doubles norm

 Reference string
  0.85530495298696829      :(1a)+ (2a)+ (3a)+ (1b)+ (2b)+ (3b)+ |0>

 Singles strings

 Doubles strings
 -0.51812492450755532      :(4a)+ (4b)+ (3b)  (3a)  (1a)+ (2a)+ (3a)+ (1b)+ (2b)+ (3b)+ |0>
 -------------------------------------
 enrep_tce =   0.90909090909090906     
  EHF(total)         =       -14.81965862
  Shift (HFtot-HFA)  =         0.00000000
 ALL OCCUPIED ORBITALS ARE ACTIVE IN DUCC --> NO SHIFT
 Number of active orbitals                    4
 Number of active alpha electrons                    3
 Number of active beta electrons                    3
  nos                     6
  nvs                   134
 noas                     3
 nobs                     3
 nvas                    67
 nvbs                    67
 nactv                     1
 DUCC MODEL =                     6
 NONHF =  T
 F-T1 correlation    =   -1.1801111244101013E-003
 V-T1-T1 correlation =    2.7601476495945046E-005
 V-T2 correlation    =   -8.0694271478502569E-002
 Total correlation   =   -8.1846781126416732E-002
 F-T1(Ext) correlation         =   -1.1839017158447869E-003
 V-T1(Ext)-T1(Ext) correlation =    2.7163249924549203E-005
 V-T2(Ext) correlation         =   -3.9747322615521823E-002
 Total Ext correlation         =   -4.0904061081442060E-002
1-BODY TIME =  213.472 SECONDS.
  HHHH TIME =  215.474 SECONDS.
  PPPP TIME =    0.765 SECONDS.
  HHHP TIME =    6.380 SECONDS.
  PPPH TIME =    1.030 SECONDS.
  HPHP TIME =    4.843 SECONDS.
  HHPP TIME =    1.229 SECONDS.
 ONE-BODY UNITARY CHECK
 TWO-BODY UNITARY CHECK
                    1                    1                    1                    3  -5.6513803668208233E-010
                    1                    1                    3                    1   5.6513803660519486E-010
                    1                    2                    2                    3  -5.8423898509872563E-010
                    1                    2                    3                    2   5.8841463209595261E-010
                    1                    3                    1                    1   5.6513803668208233E-010
                    1                    3                    2                    2   1.4218807466087705E-011
                    1                    3                    3                    1  -7.9404219310852397E-009
                    1                    3                    3                    3   8.3779878216773292E-011
                    1                    4                    1                    6   3.3301948004771376E-010
                    1                    4                    2                    5  -1.1850657122280950E-009
                    1                    4                    3                    4  -1.5834689823246428E-008
                    1                    4                    3                    6   1.6025124180765737E-008
                    1                    4                    4                    3  -8.9815755527355989E-010
                    1                    4                    5                    2   1.1850657122280950E-009
                    1                    4                    6                    1   1.6399827898472275E-008
                    1                    4                    6                    3  -1.6025124180765737E-008
                    1                    5                    2                    4  -1.3347771776750506E-009
                    1                    5                    2                    6   1.3146497709892735E-009
                    1                    5                    3                    5  -1.6072218389506787E-008
                    1                    5                    5                    1   1.3347228877691464E-009
                    1                    5                    5                    3  -1.8988886296700258E-009
                    1                    5                    6                    2   1.6660632887188775E-008
                    1                    6                    1                    4  -3.3301948004771376E-010
                    1                    6                    2                    5   1.0858968169102923E-009
                    1                    6                    3                    4   2.2294757915687635E-008
                    1                    6                    3                    6   3.3485727777833423E-007
                    1                    6                    4                    1   8.9815749976240866E-010
                    1                    6                    5                    2  -1.0716780102226764E-009
                    1                    6                    6                    1  -3.0235179943050028E-008
                    1                    6                    6                    3  -3.3477349790206855E-007
                    2                    1                    2                    3   2.8902200186094185E-012
                    2                    1                    3                    2  -7.0658654437432550E-012
                    2                    2                    1                    3  -1.4218807466087705E-011
                    2                    2                    3                    1   1.4218807737997482E-011
                    2                    3                    1                    2   5.8423898509872563E-010
                    2                    3                    2                    1  -2.8902200186094185E-012
                    2                    3                    3                    2  -8.0094011145614985E-009
                    2                    4                    1                    5   1.3347771776750506E-009
                    2                    4                    2                    6  -1.8292106024331289E-010
                    2                    4                    3                    5  -1.8161093608137779E-008
                    2                    4                    4                    2  -1.3347228877691464E-009
                    2                    4                    5                    3   1.8581095689862437E-010
                    2                    4                    6                    2   1.8154028079420126E-008
                    2                    5                    1                    4   1.1850657122280950E-009
                    2                    5                    1                    6  -1.0858968169102923E-009
                    2                    5                    3                    4  -1.7823286797835625E-008
                    2                    5                    3                    6   1.2796365418676903E-008
                    2                    5                    4                    1  -1.1850657122280950E-009
                    2                    5                    4                    3   1.0716781004282971E-009
                    2                    5                    6                    1   1.7837505514317620E-008
                    2                    5                    6                    3  -1.2796365418676903E-008
                    2                    6                    1                    5  -1.3146497709892735E-009
                    2                    6                    2                    4   1.8292106024331289E-010
                    2                    6                    3                    5   1.9371906935343464E-008
                    2                    6                    4                    2   1.8988885602810868E-009
                    2                    6                    5                    1  -1.8581104710424512E-010
                    2                    6                    6                    2  -2.7381307970975044E-008
                    3                    1                    1                    1  -5.6513803660519486E-010
                    3                    1                    1                    3   7.9404219310852397E-009
                    3                    1                    2                    2  -1.4218807737997482E-011
                    3                    1                    3                    3  -8.3779878277862234E-011
                    3                    2                    1                    2  -5.8841463209595261E-010
                    3                    2                    2                    1   7.0658654437432550E-012
                    3                    2                    2                    3   8.0094011145614985E-009
                    3                    3                    1                    3  -8.3779878216773292E-011
                    3                    3                    3                    1   8.3779878277862234E-011
                    3                    4                    1                    4   1.5834689823246428E-008
                    3                    4                    1                    6  -2.2294757915687635E-008
                    3                    4                    2                    5   1.7823286797835625E-008
                    3                    4                    3                    6  -5.7226152375827732E-010
                    3                    4                    4                    1  -1.6399827842961123E-008
                    3                    4                    4                    3   3.0235179943050028E-008
                    3                    4                    5                    2  -1.7837505604523241E-008
                    3                    4                    6                    3   4.8848164727575971E-010
                    3                    5                    1                    5   1.6072218389506787E-008
                    3                    5                    2                    4   1.8161093608137779E-008
                    3                    5                    2                    6  -1.9371906935343464E-008
                    3                    5                    4                    2  -1.6660632790044261E-008
                    3                    5                    5                    1  -1.8154028010031187E-008
                    3                    5                    5                    3   2.7381307970975044E-008
                    3                    6                    1                    4  -1.6025124180765737E-008
                    3                    6                    1                    6  -3.3485727777833423E-007
                    3                    6                    2                    5  -1.2796365418676903E-008
                    3                    6                    3                    4   5.7226152375827732E-010
                    3                    6                    4                    1   1.6025124180765737E-008
                    3                    6                    4                    3   3.3477349790662220E-007
                    3                    6                    5                    2   1.2796365418676903E-008
                    3                    6                    6                    1  -4.8848165182940884E-010
                    4                    1                    1                    6  -8.9815749976240866E-010
                    4                    1                    2                    5   1.1850657122280950E-009
                    4                    1                    3                    4   1.6399827842961123E-008
                    4                    1                    3                    6  -1.6025124180765737E-008
                    4                    1                    4                    3   3.3301953555886499E-010
                    4                    1                    5                    2  -1.1850657122280950E-009
                    4                    1                    6                    1  -1.5834689878757580E-008
                    4                    1                    6                    3   1.6025124180765737E-008
                    4                    2                    2                    4   1.3347228877691464E-009
                    4                    2                    2                    6  -1.8988885602810868E-009
                    4                    2                    3                    5   1.6660632790044261E-008
                    4                    2                    5                    1  -1.3347751792736062E-009
                    4                    2                    5                    3   1.3146498611948942E-009
                    4                    2                    6                    2  -1.6072218458895726E-008
                    4                    3                    1                    4   8.9815755527355989E-010
                    4                    3                    2                    5  -1.0716781004282971E-009
                    4                    3                    3                    4  -3.0235179943050028E-008
                    4                    3                    3                    6  -3.3477349790662220E-007
                    4                    3                    4                    1  -3.3301953555886499E-010
                    4                    3                    5                    2   1.0858969071159130E-009
                    4                    3                    6                    1   2.2294757924361253E-008
                    4                    3                    6                    3   3.3485727778267103E-007
                    4                    4                    4                    6  -5.6513803715980933E-010
                    4                    4                    6                    4   5.6513803681695330E-010
                    4                    5                    5                    6  -5.8423898642687329E-010
                    4                    5                    6                    5   5.8841463160806164E-010
                    4                    6                    4                    4   5.6513803715980933E-010
                    4                    6                    5                    5   1.4218807676998030E-011
                    4                    6                    6                    4  -7.9404219310852397E-009
                    4                    6                    6                    6   8.3779878331966709E-011
                    5                    1                    1                    5  -1.3347228877691464E-009
                    5                    1                    2                    6   1.8581104710424512E-010
                    5                    1                    3                    5   1.8154028010031187E-008
                    5                    1                    4                    2   1.3347751792736062E-009
                    5                    1                    5                    3  -1.8292099085437385E-010
                    5                    1                    6                    2  -1.8161093705282294E-008
                    5                    2                    1                    4  -1.1850657122280950E-009
                    5                    2                    1                    6   1.0716780102226764E-009
                    5                    2                    3                    4   1.7837505604523241E-008
                    5                    2                    3                    6  -1.2796365418676903E-008
                    5                    2                    4                    1   1.1850657122280950E-009
                    5                    2                    4                    3  -1.0858969071159130E-009
                    5                    2                    6                    1  -1.7823286707630004E-008
                    5                    2                    6                    3   1.2796365418676903E-008
                    5                    3                    1                    5   1.8988886296700258E-009
                    5                    3                    2                    4  -1.8581095689862437E-010
                    5                    3                    3                    5  -2.7381307970975044E-008
                    5                    3                    4                    2  -1.3146498611948942E-009
                    5                    3                    5                    1   1.8292099085437385E-010
                    5                    3                    6                    2   1.9371906949221251E-008
                    5                    4                    5                    6   2.8902198559790926E-012
                    5                    4                    6                    5  -7.0658652269028205E-012
                    5                    5                    4                    6  -1.4218807676998030E-011
                    5                    5                    6                    4   1.4218807903168441E-011
                    5                    6                    4                    5   5.8423898642687329E-010
                    5                    6                    5                    4  -2.8902198559790926E-012
                    5                    6                    6                    5  -8.0094011145614985E-009
                    6                    1                    1                    4  -1.6399827898472275E-008
                    6                    1                    1                    6   3.0235179943050028E-008
                    6                    1                    2                    5  -1.7837505514317620E-008
                    6                    1                    3                    6   4.8848165182940884E-010
                    6                    1                    4                    1   1.5834689878757580E-008
                    6                    1                    4                    3  -2.2294757924361253E-008
                    6                    1                    5                    2   1.7823286707630004E-008
                    6                    1                    6                    3  -5.7226152809508601E-010
                    6                    2                    1                    5  -1.6660632887188775E-008
                    6                    2                    2                    4  -1.8154028079420126E-008
                    6                    2                    2                    6   2.7381307970975044E-008
                    6                    2                    4                    2   1.6072218458895726E-008
                    6                    2                    5                    1   1.8161093705282294E-008
                    6                    2                    5                    3  -1.9371906949221251E-008
                    6                    3                    1                    4   1.6025124180765737E-008
                    6                    3                    1                    6   3.3477349790206855E-007
                    6                    3                    2                    5   1.2796365418676903E-008
                    6                    3                    3                    4  -4.8848164727575971E-010
                    6                    3                    4                    1  -1.6025124180765737E-008
                    6                    3                    4                    3  -3.3485727778267103E-007
                    6                    3                    5                    2  -1.2796365418676903E-008
                    6                    3                    6                    1   5.7226152809508601E-010
                    6                    4                    4                    4  -5.6513803681695330E-010
                    6                    4                    4                    6   7.9404219310852397E-009
                    6                    4                    5                    5  -1.4218807903168441E-011
                    6                    4                    6                    6  -8.3779878168603502E-011
                    6                    5                    4                    5  -5.8841463160806164E-010
                    6                    5                    5                    4   7.0658652269028205E-012
                    6                    5                    5                    6   8.0094011145614985E-009
                    6                    6                    4                    6  -8.3779878331966709E-011
                    6                    6                    6                    4   8.3779878168603502E-011
 TWO-BODY ANTISYMMETRY CHECK
 TRANSFORMED ~FOCK~ MATRIX
    1    1        -2.5035991463
    1    3         0.0038235447
    2    2        -2.5036034090
    2    4        -0.0029511436
    3    1         0.0038235447
    3    3        -0.1522731475
    4    2        -0.0029511436
    4    4        -0.0145234364
 begin_one_electron_integrals
    1    1        -4.7434818164
    1    3         0.1175679687
    1    4         0.0000000016
    2    2        -4.7437141923
    2    3        -0.0000000014
    2    4         0.1314389150
    3    1         0.1175679676
    3    2        -0.0000000014
    3    3        -1.1238145558
    4    1         0.0000000016
    4    2         0.1314389150
    4    4        -1.1379239219
 end_one_electron_integrals
 begin_two_electron_integrals
    1    1    1    1        0.8661723729
    1    1    1    2        0.0000000187
    1    1    1    3       -0.0561919625
    1    1    1    4       -0.0000000024
    1    2    1    1        0.0000000187
    1    2    1    2        0.7653036931
    1    2    1    3       -0.0000000007
    1    2    1    4       -0.0660449867
    1    3    1    1       -0.0561919793
    1    3    1    2       -0.0000000007
    1    3    1    3        0.0053222457
    1    3    1    4        0.0000000002
    1    4    1    1       -0.0000000024
    1    4    1    2       -0.0660449867
    1    4    1    3        0.0000000002
    1    4    1    4        0.0102854388
    1    1    2    1        0.0000000187
    1    1    2    2        0.8662752942
    1    1    2    3       -0.0000000007
    1    1    2    4       -0.0661259379
    1    2    2    1        0.7652974427
    1    2    2    2       -0.0000000187
    1    2    2    3       -0.0563321288
    1    2    2    4        0.0000000008
    1    3    2    1       -0.0000000007
    1    3    2    2       -0.0562019987
    1    3    2    4        0.0076738923
    1    4    2    1       -0.0660473749
    1    4    2    2        0.0000000008
    1    4    2    3        0.0076738339
    1    1    3    1       -0.0561919629
    1    1    3    2       -0.0000000007
    1    1    3    3        0.2062058153
    1    1    3    4        0.0000000027
    1    2    3    1       -0.0000000007
    1    2    3    2       -0.0563359942
    1    2    3    4        0.1092487651
    1    3    3    1        0.0059545367
    1    3    3    3       -0.0014806287
    1    4    3    1        0.0000000002
    1    4    3    2        0.0079654699
    1    4    3    4       -0.0025088332
    1    1    4    1       -0.0000000024
    1    1    4    2       -0.0661259379
    1    1    4    3        0.0000000027
    1    1    4    4        0.2174266696
    1    2    4    1       -0.0660473749
    1    2    4    2        0.0000000008
    1    2    4    3        0.1092487299
    1    3    4    1        0.0000000002
    1    3    4    2        0.0079655744
    1    3    4    4       -0.0015730718
    1    4    4    1        0.0080142845
    1    4    4    3       -0.0013805357
    2    1    1    1        0.0000000187
    2    1    1    2        0.7652974440
    2    1    1    3       -0.0000000007
    2    1    1    4       -0.0660473749
    2    2    1    1        0.8662752928
    2    2    1    2       -0.0000000187
    2    2    1    3       -0.0562019807
    2    2    1    4        0.0000000008
    2    3    1    1       -0.0000000007
    2    3    1    2       -0.0563321468
    2    3    1    4        0.0076738339
    2    4    1    1       -0.0661259379
    2    4    1    2        0.0000000008
    2    4    1    3        0.0076738923
    2    1    2    1        0.7653036943
    2    1    2    2       -0.0000000187
    2    1    2    3       -0.0563359953
    2    1    2    4        0.0000000008
    2    2    2    1       -0.0000000187
    2    2    2    2        0.8663964443
    2    2    2    3        0.0000000021
    2    2    2    4       -0.0661402377
    2    3    2    1       -0.0563360120
    2    3    2    2        0.0000000021
    2    3    2    3        0.0053275625
    2    3    2    4       -0.0000000002
    2    4    2    1        0.0000000008
    2    4    2    2       -0.0661402377
    2    4    2    3       -0.0000000002
    2    4    2    4        0.0102890193
    2    1    3    1       -0.0000000007
    2    1    3    2       -0.0563321302
    2    1    3    4        0.1092487299
    2    2    3    1       -0.0562019805
    2    2    3    2        0.0000000021
    2    2    3    3        0.2062090401
    2    2    3    4       -0.0000000027
    2    3    3    2        0.0059569401
    2    3    3    4       -0.0018980118
    2    4    3    1        0.0079655744
    2    4    3    2       -0.0000000002
    2    4    3    3       -0.0019716659
    2    1    4    1       -0.0660449867
    2    1    4    2        0.0000000008
    2    1    4    3        0.1092487651
    2    2    4    1        0.0000000008
    2    2    4    2       -0.0661402377
    2    2    4    3       -0.0000000027
    2    2    4    4        0.2174298983
    2    3    4    1        0.0079654699
    2    3    4    2       -0.0000000002
    2    3    4    3       -0.0019258845
    2    4    4    2        0.0080169571
    2    4    4    4       -0.0017627587
    3    1    1    1       -0.0561919634
    3    1    1    2       -0.0000000007
    3    1    1    3        0.0059545144
    3    1    1    4        0.0000000002
    3    2    1    1       -0.0000000007
    3    2    1    2       -0.0563359942
    3    2    1    4        0.0079654699
    3    3    1    1        0.2062058455
    3    3    1    3       -0.0014806288
    3    4    1    1        0.0000000027
    3    4    1    2        0.1092487651
    3    4    1    4       -0.0025088332
    3    1    2    1       -0.0000000007
    3    1    2    2       -0.0562019826
    3    1    2    4        0.0079655744
    3    2    2    1       -0.0563321287
    3    2    2    2        0.0000000021
    3    2    2    3        0.0059569208
    3    2    2    4       -0.0000000002
    3    3    2    2        0.2062090674
    3    3    2    4       -0.0019716659
    3    4    2    1        0.1092487299
    3    4    2    2       -0.0000000027
    3    4    2    3       -0.0018980118
    3    1    3    1        0.0053222297
    3    1    3    3       -0.0014809635
    3    2    3    2        0.0053275497
    3    2    3    4       -0.0019258845
    3    3    3    1       -0.0014806282
    3    3    3    3        0.1586231328
    3    4    3    2       -0.0019258845
    3    4    3    4        0.0609622891
    3    1    4    1        0.0000000002
    3    1    4    2        0.0076738923
    3    1    4    4       -0.0015730718
    3    2    4    1        0.0076738339
    3    2    4    2       -0.0000000002
    3    2    4    3       -0.0018980118
    3    3    4    2       -0.0019716659
    3    3    4    4        0.1677647243
    3    4    4    1       -0.0013805357
    3    4    4    3        0.0658108571
    4    1    1    1       -0.0000000024
    4    1    1    2       -0.0660473749
    4    1    1    3        0.0000000002
    4    1    1    4        0.0080142845
    4    2    1    1       -0.0661259379
    4    2    1    2        0.0000000008
    4    2    1    3        0.0079655744
    4    3    1    1        0.0000000027
    4    3    1    2        0.1092487299
    4    3    1    4       -0.0013805357
    4    4    1    1        0.2174266696
    4    4    1    3       -0.0015730718
    4    1    2    1       -0.0660449867
    4    1    2    2        0.0000000008
    4    1    2    3        0.0079654699
    4    2    2    1        0.0000000008
    4    2    2    2       -0.0661402377
    4    2    2    3       -0.0000000002
    4    2    2    4        0.0080169571
    4    3    2    1        0.1092487651
    4    3    2    2       -0.0000000027
    4    3    2    3       -0.0019258845
    4    4    2    2        0.2174298983
    4    4    2    4       -0.0017627587
    4    1    3    1        0.0000000002
    4    1    3    2        0.0076738339
    4    1    3    4       -0.0013805357
    4    2    3    1        0.0076738923
    4    2    3    2       -0.0000000002
    4    2    3    3       -0.0019716659
    4    3    3    2       -0.0018980118
    4    3    3    4        0.0658108571
    4    4    3    1       -0.0015730718
    4    4    3    3        0.1677647243
    4    1    4    1        0.0102854388
    4    1    4    3       -0.0025088332
    4    2    4    2        0.0102890193
    4    2    4    4       -0.0017627587
    4    3    4    1       -0.0025088332
    4    3    4    3        0.0609622891
    4    4    4    2       -0.0017627587
    4    4    4    4        0.1696078038
 end_two_electron_integrals

 Parallel integral file used      20 records with       0 large values


 Task  times  cpu:      480.3s     wall:      482.3s


                                NWChem Input Module
                                -------------------


 Summary of allocated global arrays
-----------------------------------
  No active global arrays


MA_summarize_allocated_blocks: starting scan ...
MA_summarize_allocated_blocks: scan completed: 0 heap blocks, 0 stack blocks
MA usage statistics:

	allocation statistics:
					      heap	     stack
					      ----	     -----
	current number of blocks	         0	         0
	maximum number of blocks	        18	        42
	current total bytes		         0	         0
	maximum total bytes		  51988456	9998573272
	maximum total K-bytes		     51989	   9998574
	maximum total M-bytes		        52	      9999


                                     CITATION
                                     --------
                Please cite the following reference when publishing
                           results obtained with NWChem:

          E. Apra, E. J. Bylaska, W. A. de Jong, N. Govind, K. Kowalski,
       T. P. Straatsma, M. Valiev, H. J. J. van Dam, Y. Alexeev, J. Anchell,
       V. Anisimov, F. W. Aquino, R. Atta-Fynn, J. Autschbach, N. P. Bauman,
     J. C. Becca, D. E. Bernholdt, K. Bhaskaran-Nair, S. Bogatko, P. Borowski,
         J. Boschen, J. Brabec, A. Bruner, E. Cauet, Y. Chen, G. N. Chuev,
      C. J. Cramer, J. Daily, M. J. O. Deegan, T. H. Dunning Jr., M. Dupuis,
   K. G. Dyall, G. I. Fann, S. A. Fischer, A. Fonari, H. Fruchtl, L. Gagliardi,
      J. Garza, N. Gawande, S. Ghosh, K. Glaesemann, A. W. Gotz, J. Hammond,
       V. Helms, E. D. Hermes, K. Hirao, S. Hirata, M. Jacquelin, L. Jensen,
   B. G. Johnson, H. Jonsson, R. A. Kendall, M. Klemm, R. Kobayashi, V. Konkov,
      S. Krishnamoorthy, M. Krishnan, Z. Lin, R. D. Lins, R. J. Littlefield,
      A. J. Logsdail, K. Lopata, W. Ma, A. V. Marenich, J. Martin del Campo,
   D. Mejia-Rodriguez, J. E. Moore, J. M. Mullin, T. Nakajima, D. R. Nascimento,
    J. A. Nichols, P. J. Nichols, J. Nieplocha, A. Otero-de-la-Roza, B. Palmer,
    A. Panyala, T. Pirojsirikul, B. Peng, R. Peverati, J. Pittner, L. Pollack,
   R. M. Richard, P. Sadayappan, G. C. Schatz, W. A. Shelton, D. W. Silverstein,
   D. M. A. Smith, T. A. Soares, D. Song, M. Swart, H. L. Taylor, G. S. Thomas,
            V. Tipparaju, D. G. Truhlar, K. Tsemekhman, T. Van Voorhis,
      A. Vazquez-Mayagoitia, P. Verma, O. Villa, A. Vishnu, K. D. Vogiatzis,
        D. Wang, J. H. Weare, M. J. Williamson, T. L. Windus, K. Wolinski,
        A. T. Wong, Q. Wu, C. Yang, Q. Yu, M. Zacharias, Z. Zhang, Y. Zhao,
                                and R. J. Harrison
                        "NWChem: Past, present, and future
                         J. Chem. Phys. 152, 184102 (2020)
                               doi:10.1063/5.0004997

                                      AUTHORS
                                      -------
  E. Apra, E. J. Bylaska, N. Govind, K. Kowalski, M. Valiev, D. Mejia-Rodriguez,
       A. Kunitsa, N. P. Bauman, A. Panyala, W. A. de Jong, T. P. Straatsma,
        H. J. J. van Dam, D. Wang, T. L. Windus, J. Hammond, J. Autschbach,
    K. Bhaskaran-Nair, J. Brabec, K. Lopata, S. A. Fischer, S. Krishnamoorthy,
     M. Jacquelin, W. Ma, M. Klemm, O. Villa, Y. Chen, V. Anisimov, F. Aquino,
    S. Hirata, M. T. Hackler, Eric Hermes, L. Jensen, J. E. Moore, J. C. Becca,
      V. Konjkov, T. Risthaus, M. Malagoli, A. Marenich, A. Otero-de-la-Roza,
        J. Mullin, P. Nichols, R. Peverati, J. Pittner, Y. Zhao, P.-D. Fan,
        A. Fonari, M. J. Williamson, R. J. Harrison, J. R. Rehr, M. Dupuis,
     D. Silverstein, D. M. A. Smith, J. Nieplocha, V. Tipparaju, M. Krishnan,
     B. E. Van Kuiken, A. Vazquez-Mayagoitia, M. Swart, Q. Wu, T. Van Voorhis,
     A. A. Auer, M. Nooijen, L. D. Crosby, E. Brown, G. Cisneros, G. I. Fann,
   H. Fruchtl, J. Garza, K. Hirao, R. A. Kendall, J. A. Nichols, K. Tsemekhman,
    K. Wolinski, J. Anchell, D. E. Bernholdt, P. Borowski, T. Clark, D. Clerc,
   H. Dachsel, M. J. O. Deegan, K. Dyall, D. Elwood, E. Glendening, M. Gutowski,
   A. C. Hess, J. Jaffe, B. G. Johnson, J. Ju, R. Kobayashi, R. Kutteh, Z. Lin,
   R. Littlefield, X. Long, B. Meng, T. Nakajima, S. Niu, L. Pollack, M. Rosing,
   K. Glaesemann, G. Sandrone, M. Stave, H. Taylor, G. Thomas, J. H. van Lenthe,
                               A. T. Wong, Z. Zhang.

 Total times  cpu:      481.1s     wall:      483.6s
