 argument  1 = input.nw
  NWChem w/ OpenMP: maximum threads =    1



============================== echo of input deck ==============================
 echo
 start H2O
 title "H2O"

 memory total 24 gb

 geometry units bohr
 symmetry c1
        O  0.00000000  0.00000000  0.00000000
        H  0.00000000  1.659105  0.00000000
        H  1.72558000 -0.64860000  0.00000000
 end

 basis spherical
   * library 6-311++G**
 end

 mcscf
   active  8
   actelec 10
   multiplicity 1
   maxiter 40
   vectors input h2o.mos
   vectors output h2o.mos
 end

 task mcscf

 scf
   vectors input h2o.mos
   vectors output h2o-trash.mos
   noscf
 end

 tce
   2eorb
   2emet 13
   ccsd
   maxiter 300
 end

# set tce:print_integrals T
# set tce:qorb 8
# set tce:qela 5
# set tce:qelb 5

 set tce:qducc T
 set tce:nactv 3
 set tce:nonhf T
 set tce:ducc_model 6

 set tce:printtol 0.02

 task tce
================================================================================


                                         
                                         


             Northwest Computational Chemistry Package (NWChem) 7.0.1
             --------------------------------------------------------


                    Environmental Molecular Sciences Laboratory
                       Pacific Northwest National Laboratory
                                Richland, WA 99352

                              Copyright (c) 1994-2020
                       Pacific Northwest National Laboratory
                            Battelle Memorial Institute

             NWChem is an open-source computational chemistry package
                        distributed under the terms of the
                      Educational Community License (ECL) 2.0
             A copy of the license is included with this distribution
                              in the LICENSE.TXT file

                                  ACKNOWLEDGMENT
                                  --------------

            This software and its documentation were developed at the
            EMSL at Pacific Northwest National Laboratory, a multiprogram
            national laboratory, operated for the U.S. Department of Energy
            by Battelle under Contract Number DE-AC05-76RL01830. Support
            for this work was provided by the Department of Energy Office
            of Biological and Environmental Research, Office of Basic
            Energy Sciences, and the Office of Advanced Scientific Computing.


           Job information
           ---------------

    hostname        = WE46210
    program         = /home/baum612/code/nwchem/bin/LINUX64/nwchem
    date            = Thu Sep  5 13:33:38 2024

    compiled        = Wed_Sep_04_02:00:17_2024
    source          = /home/baum612/code/nwchem
    nwchem branch   = 7.0.0
    nwchem revision = nwchem_on_git-4191-g39d87d64de
    ga revision     = 5.8.1
    use scalapack   = F
    input           = input.nw
    prefix          = H2O.
    data base       = ./H2O.db
    status          = startup
    nproc           =        1
    time left       =     -1s



           Memory information
           ------------------

    heap     =  805306366 doubles =   6144.0 Mbytes
    stack    =  805306363 doubles =   6144.0 Mbytes
    global   = 1610612736 doubles =  12288.0 Mbytes (distinct from heap & stack)
    total    = 3221225465 doubles =  24576.0 Mbytes
    verify   = yes
    hardfail = no 


           Directory information
           ---------------------

  0 permanent = .
  0 scratch   = .




                                NWChem Input Module
                                -------------------


                                        H2O
                                        ---
 Turning off AUTOSYM since
 SYMMETRY directive was detected!


          ------
          auto-z
          ------
  no constraints, skipping    0.0000000000000000     
  no constraints, skipping    0.0000000000000000     


                             Geometry "geometry" -> ""
                             -------------------------

 Output coordinates in a.u. (scale by  1.000000000 to convert to a.u.)

  No.       Tag          Charge          X              Y              Z
 ---- ---------------- ---------- -------------- -------------- --------------
    1 O                    8.0000    -0.17255800    -0.10105050     0.00000000
    2 H                    1.0000    -0.17255800     1.55805450     0.00000000
    3 H                    1.0000     1.55302200    -0.74965050     0.00000000

      Atomic Mass 
      ----------- 

      O                 15.994910
      H                  1.007825


 Effective nuclear repulsion energy (a.u.)       9.5086054383

            Nuclear Dipole moment (a.u.) 
            ----------------------------
        X                 Y               Z
 ---------------- ---------------- ----------------
    -0.0000000000    -0.0000000000     0.0000000000



                                Z-matrix (autoz)
                                -------- 

 Units are Angstrom for bonds and degrees for angles

      Type          Name      I     J     K     L     M      Value
      ----------- --------  ----- ----- ----- ----- ----- ----------
    1 Stretch                  1     2                       0.87796
    2 Stretch                  1     3                       0.97551
    3 Bend                     2     1     3               110.59992


            XYZ format geometry
            -------------------
     3
 geometry
 O                    -0.09131377    -0.05347363     0.00000000
 H                    -0.09131377     0.82448699     0.00000000
 H                     0.82182391    -0.39669799     0.00000000

 ==============================================================================
                                internuclear distances
 ------------------------------------------------------------------------------
       center one      |      center two      | atomic units |       a.u.
 ------------------------------------------------------------------------------
    2 H                |   1 O                |     1.65911  |     1.65911
    3 H                |   1 O                |     1.84345  |     1.84345
 ------------------------------------------------------------------------------
                         number of included internuclear distances:          2
 ==============================================================================



 ==============================================================================
                                 internuclear angles
 ------------------------------------------------------------------------------
        center 1       |       center 2       |       center 3       |  degrees
 ------------------------------------------------------------------------------
    2 H                |   1 O                |   3 H                |   110.60
 ------------------------------------------------------------------------------
                            number of included internuclear angles:          1
 ==============================================================================





 Summary of "ao basis" -> "" (spherical)
 ------------------------------------------------------------------------------
       Tag                 Description            Shells   Functions and Types
 ---------------- ------------------------------  ------  ---------------------
 *                         6-311++G**                 on all atoms 


                      Basis "ao basis" -> "ao basis" (spherical)
                      -----
  O (Oxygen)
  ----------
            Exponent  Coefficients 
       -------------- ---------------------------------------------------------
  1 S  8.58850000E+03  0.001895
  1 S  1.29723000E+03  0.014386
  1 S  2.99296000E+02  0.070732
  1 S  8.73771000E+01  0.240001
  1 S  2.56789000E+01  0.594797
  1 S  3.74004000E+00  0.280802

  2 S  4.21175000E+01  0.113889
  2 S  9.62837000E+00  0.920811
  2 S  2.85332000E+00 -0.003274

  3 P  4.21175000E+01  0.036511
  3 P  9.62837000E+00  0.237153
  3 P  2.85332000E+00  0.819702

  4 S  9.05661000E-01  1.000000

  5 P  9.05661000E-01  1.000000

  6 S  2.55611000E-01  1.000000

  7 P  2.55611000E-01  1.000000

  8 S  8.45000000E-02  1.000000

  9 P  8.45000000E-02  1.000000

 10 D  1.29200000E+00  1.000000

  H (Hydrogen)
  ------------
            Exponent  Coefficients 
       -------------- ---------------------------------------------------------
  1 S  3.38650000E+01  0.025494
  1 S  5.09479000E+00  0.190373
  1 S  1.15879000E+00  0.852161

  2 S  3.25840000E-01  1.000000

  3 S  1.02741000E-01  1.000000

  4 S  3.60000000E-02  1.000000

  5 P  7.50000000E-01  1.000000



 Summary of "ao basis" -> "ao basis" (spherical)
 ------------------------------------------------------------------------------
       Tag                 Description            Shells   Functions and Types
 ---------------- ------------------------------  ------  ---------------------
 O                         6-311++G**               10       22   5s4p1d
 H                         6-311++G**                5        7   4s1p



                            NWChem Direct MCSCF Module
                            --------------------------


                                        H2O


     -----------------------------------
       Basis functions:             36
       Inactive shells:              0
       Active shells:                8
       Active electrons:            10
       Symmetry:                    a       
       Multiplicity:                 1
       Orbital rotations:          224
     -----------------------------------

     -----------------------------------
       E2 extrapolation:             F
       Conjugacy:                    T
       Micro CI relax:               T
       Canonical orbitals:           T
       Maximum iterations:          40
       Converge threshold:    1.00E-04
       Conjugacy resets:            20
       Initial levelshift:        0.10
     -----------------------------------

 Loading old vectors from job with title :

H2O


   input molecular orbitals = ./h2o.mos
  output molecular orbtials = ./h2o.mos

       No. of determinants:          3136


  Starting Orbital Energies
   -20.552703    -1.380495    -0.775608    -0.597954    -0.535364    -0.025934
    -0.022068    -0.016912     0.069783     0.087568     0.241377     0.277905
     0.314792     0.491205     0.508357     0.603687     0.963501     1.034309
     1.488880     1.504374     1.617743     1.743005     1.911663     2.277982
     2.447312     2.712798     2.841140     3.448252     3.601576     3.719311
     4.102338     4.258756     5.304135     5.814131     6.336139    51.623591

  Orbital Symmetry Irreps
a    a    a    a    a    a    a    a    a    a    a    a    a    a    a   
a    a    a    a    a    a    a    a    a    a    a    a    a    a    a   
a    a    a    a    a    a   

 Integral file          = ./H2O.aoints.0
 Record size in doubles =  65536        No. of integs per rec  =  43688
 Max. records in memory =     10        Max. records in file   = 232460
 No. of bits per label  =      8        No. of bits per value  =     64


 #quartets = 2.216D+04 #integrals = 1.003D+05 #direct =  0.0% #cached =100.0%




          %%%%% MacroIteration   1 %%%%%


          Number of sigma calls:       15
                       o<<<<< (aa):             0.00
                       o<<<<< (bb):             0.00
                       o<<<<< (ab):             0.05
                       o<<<<< (total)           0.05
                       o<<<<< (aa) ff           0.00
                       o<<<<< (aa) gop          0.00
                       o<<<<< (aa) dot          0.00
                       o<<<<< (ab) str          0.00
                       o<<<<< (ab) gath         0.00
                       o<<<<< (ab) dotab        0.00
                       o<<<<< (ab) scat         0.00
                       o<<<<< (ab) sync         0.00
                       o<<<<< Density           0.01
                       o<<<<< Density one       0.00
                       o<<<<< Density two       0.00
                       o<<<<< Density ab        0.01
                       o<<<<< Spin adapt        0.21
                       o<<<<< Symm adapt        0.00

                       o<<<<< (ab) max sync:      0.00

           >>>| Valence CI:            -85.645200052028
           >>>| MCSCF energy:          -76.136594613753
           >>>| Gradient norm:          0.133963174D-01

                              ----- Line search ------

        step       energy         lsg     num-lsg   num-lsh   lsrat    time
      ------- ---------------- --------- --------- --------- ------- --------
       0.0000     -76.13659461 -1.43D-05  0.00D+00  0.00D+00 0.0D+00      0.4

          Number of sigma calls:       14
                       o<<<<< (aa):             0.00
                       o<<<<< (bb):             0.00
                       o<<<<< (ab):             0.04
                       o<<<<< (total)           0.05
                       o<<<<< (aa) ff           0.00
                       o<<<<< (aa) gop          0.00
                       o<<<<< (aa) dot          0.00
                       o<<<<< (ab) str          0.00
                       o<<<<< (ab) gath         0.00
                       o<<<<< (ab) dotab        0.00
                       o<<<<< (ab) scat         0.00
                       o<<<<< (ab) sync         0.00
                       o<<<<< Density           0.01
                       o<<<<< Density one       0.00
                       o<<<<< Density two       0.00
                       o<<<<< Density ab        0.01
                       o<<<<< Spin adapt        0.24
                       o<<<<< Symm adapt        0.00

                       o<<<<< (ab) max sync:      0.00
       1.0000     -76.13660198 -4.12D-07 -4.12D-07  1.39D-05 2.9D-02      0.8
     --- Orbitals canonicalized ---



          %%%%% MacroIteration   2 %%%%%


          Number of sigma calls:       11
                       o<<<<< (aa):             0.00
                       o<<<<< (bb):             0.00
                       o<<<<< (ab):             0.03
                       o<<<<< (total)           0.03
                       o<<<<< (aa) ff           0.00
                       o<<<<< (aa) gop          0.00
                       o<<<<< (aa) dot          0.00
                       o<<<<< (ab) str          0.00
                       o<<<<< (ab) gath         0.00
                       o<<<<< (ab) dotab        0.00
                       o<<<<< (ab) scat         0.00
                       o<<<<< (ab) sync         0.00
                       o<<<<< Density           0.01
                       o<<<<< Density one       0.00
                       o<<<<< Density two       0.00
                       o<<<<< Density ab        0.01
                       o<<<<< Spin adapt        0.13
                       o<<<<< Symm adapt        0.00

                       o<<<<< (ab) max sync:      0.00

           >>>| Valence CI:            -85.645207414549
           >>>| MCSCF energy:          -76.136601976274
           >>>| Gradient norm:          0.801701913D-03
     --- Warning:    1 Hessian diagonals < 0.05 ---
     --- Conjugacy reset ---

                              ----- Line search ------

        step       energy         lsg     num-lsg   num-lsh   lsrat    time
      ------- ---------------- --------- --------- --------- ------- --------
       0.0000     -76.13660198 -1.36D-07  0.00D+00  0.00D+00 0.0D+00      1.0

          Number of sigma calls:        9
                       o<<<<< (aa):             0.00
                       o<<<<< (bb):             0.00
                       o<<<<< (ab):             0.02
                       o<<<<< (total)           0.03
                       o<<<<< (aa) ff           0.00
                       o<<<<< (aa) gop          0.00
                       o<<<<< (aa) dot          0.00
                       o<<<<< (ab) str          0.00
                       o<<<<< (ab) gath         0.00
                       o<<<<< (ab) dotab        0.00
                       o<<<<< (ab) scat         0.00
                       o<<<<< (ab) sync         0.00
                       o<<<<< Density           0.00
                       o<<<<< Density one       0.00
                       o<<<<< Density two       0.00
                       o<<<<< Density ab        0.00
                       o<<<<< Spin adapt        0.11
                       o<<<<< Symm adapt        0.00

                       o<<<<< (ab) max sync:      0.00
       1.0000     -76.13660207 -5.57D-08 -5.57D-08  7.99D-08 4.1D-01      1.2

          Number of sigma calls:        9
                       o<<<<< (aa):             0.00
                       o<<<<< (bb):             0.00
                       o<<<<< (ab):             0.03
                       o<<<<< (total)           0.03
                       o<<<<< (aa) ff           0.00
                       o<<<<< (aa) gop          0.00
                       o<<<<< (aa) dot          0.00
                       o<<<<< (ab) str          0.00
                       o<<<<< (ab) gath         0.00
                       o<<<<< (ab) dotab        0.00
                       o<<<<< (ab) scat         0.00
                       o<<<<< (ab) sync         0.00
                       o<<<<< Density           0.00
                       o<<<<< Density one       0.00
                       o<<<<< Density two       0.00
                       o<<<<< Density ab        0.00
                       o<<<<< Spin adapt        0.14
                       o<<<<< Symm adapt        0.00

                       o<<<<< (ab) max sync:      0.00
       1.6977     -76.13660209 -7.99D-11 -7.46D-11  7.98D-08 5.9D-04      1.4



          %%%%% MacroIteration   3 %%%%%


          Number of sigma calls:        1
                       o<<<<< (aa):             0.00
                       o<<<<< (bb):             0.00
                       o<<<<< (ab):             0.00
                       o<<<<< (total)           0.00
                       o<<<<< (aa) ff           0.00
                       o<<<<< (aa) gop          0.00
                       o<<<<< (aa) dot          0.00
                       o<<<<< (ab) str          0.00
                       o<<<<< (ab) gath         0.00
                       o<<<<< (ab) dotab        0.00
                       o<<<<< (ab) scat         0.00
                       o<<<<< (ab) sync         0.00
                       o<<<<< Density           0.01
                       o<<<<< Density one       0.00
                       o<<<<< Density two       0.00
                       o<<<<< Density ab        0.00
                       o<<<<< Spin adapt        0.00
                       o<<<<< Symm adapt        0.00

                       o<<<<< (ab) max sync:      0.00

           >>>| Valence CI:            -85.645207529672
           >>>| MCSCF energy:          -76.136602091397
           >>>| Gradient norm:          0.219978236D-03
     --- Warning:    1 Hessian diagonals < 0.05 ---

                              ----- Line search ------

        step       energy         lsg     num-lsg   num-lsh   lsrat    time
      ------- ---------------- --------- --------- --------- ------- --------
       0.0000     -76.13660209 -1.93D-08  0.00D+00  0.00D+00 0.0D+00      1.5

          Number of sigma calls:        9
                       o<<<<< (aa):             0.00
                       o<<<<< (bb):             0.00
                       o<<<<< (ab):             0.03
                       o<<<<< (total)           0.03
                       o<<<<< (aa) ff           0.00
                       o<<<<< (aa) gop          0.00
                       o<<<<< (aa) dot          0.00
                       o<<<<< (ab) str          0.00
                       o<<<<< (ab) gath         0.00
                       o<<<<< (ab) dotab        0.00
                       o<<<<< (ab) scat         0.00
                       o<<<<< (ab) sync         0.00
                       o<<<<< Density           0.01
                       o<<<<< Density one       0.00
                       o<<<<< Density two       0.00
                       o<<<<< Density ab        0.01
                       o<<<<< Spin adapt        0.12
                       o<<<<< Symm adapt        0.00

                       o<<<<< (ab) max sync:      0.00
       1.0000     -76.13660211 -1.13D-08 -1.13D-08  8.03D-09 5.8D-01      1.7

          Number of sigma calls:        9
                       o<<<<< (aa):             0.00
                       o<<<<< (bb):             0.00
                       o<<<<< (ab):             0.02
                       o<<<<< (total)           0.03
                       o<<<<< (aa) ff           0.00
                       o<<<<< (aa) gop          0.00
                       o<<<<< (aa) dot          0.00
                       o<<<<< (ab) str          0.00
                       o<<<<< (ab) gath         0.00
                       o<<<<< (ab) dotab        0.00
                       o<<<<< (ab) scat         0.00
                       o<<<<< (ab) sync         0.00
                       o<<<<< Density           0.01
                       o<<<<< Density one       0.00
                       o<<<<< Density two       0.00
                       o<<<<< Density ab        0.01
                       o<<<<< Spin adapt        0.15
                       o<<<<< Symm adapt        0.00

                       o<<<<< (ab) max sync:      0.00
       2.4022     -76.13660211 -4.06D-12 -3.13D-12  8.02D-09 2.1D-04      1.9



          %%%%% MacroIteration   4 %%%%%


          Number of sigma calls:        1
                       o<<<<< (aa):             0.00
                       o<<<<< (bb):             0.00
                       o<<<<< (ab):             0.00
                       o<<<<< (total)           0.00
                       o<<<<< (aa) ff           0.00
                       o<<<<< (aa) gop          0.00
                       o<<<<< (aa) dot          0.00
                       o<<<<< (ab) str          0.00
                       o<<<<< (ab) gath         0.00
                       o<<<<< (ab) dotab        0.00
                       o<<<<< (ab) scat         0.00
                       o<<<<< (ab) sync         0.00
                       o<<<<< Density           0.00
                       o<<<<< Density one       0.00
                       o<<<<< Density two       0.00
                       o<<<<< Density ab        0.00
                       o<<<<< Spin adapt        0.00
                       o<<<<< Symm adapt        0.00

                       o<<<<< (ab) max sync:      0.00

           >>>| Valence CI:            -85.645207552833
           >>>| MCSCF energy:          -76.136602114558
           >>>| Gradient norm:          0.233369854D-03
     --- Warning:    1 Hessian diagonals < 0.05 ---

                              ----- Line search ------

        step       energy         lsg     num-lsg   num-lsh   lsrat    time
      ------- ---------------- --------- --------- --------- ------- --------
       0.0000     -76.13660211 -8.72D-09  0.00D+00  0.00D+00 0.0D+00      1.9

          Number of sigma calls:        9
                       o<<<<< (aa):             0.00
                       o<<<<< (bb):             0.00
                       o<<<<< (ab):             0.02
                       o<<<<< (total)           0.03
                       o<<<<< (aa) ff           0.00
                       o<<<<< (aa) gop          0.00
                       o<<<<< (aa) dot          0.00
                       o<<<<< (ab) str          0.00
                       o<<<<< (ab) gath         0.00
                       o<<<<< (ab) dotab        0.00
                       o<<<<< (ab) scat         0.00
                       o<<<<< (ab) sync         0.00
                       o<<<<< Density           0.01
                       o<<<<< Density one       0.00
                       o<<<<< Density two       0.00
                       o<<<<< Density ab        0.01
                       o<<<<< Spin adapt        0.16
                       o<<<<< Symm adapt        0.00

                       o<<<<< (ab) max sync:      0.00
       1.0000     -76.13660212 -4.38D-09 -4.38D-09  4.34D-09 5.0D-01      2.2

          Number of sigma calls:        9
                       o<<<<< (aa):             0.00
                       o<<<<< (bb):             0.00
                       o<<<<< (ab):             0.03
                       o<<<<< (total)           0.03
                       o<<<<< (aa) ff           0.00
                       o<<<<< (aa) gop          0.00
                       o<<<<< (aa) dot          0.00
                       o<<<<< (ab) str          0.00
                       o<<<<< (ab) gath         0.00
                       o<<<<< (ab) dotab        0.00
                       o<<<<< (ab) scat         0.00
                       o<<<<< (ab) sync         0.00
                       o<<<<< Density           0.01
                       o<<<<< Density one       0.00
                       o<<<<< Density two       0.00
                       o<<<<< Density ab        0.01
                       o<<<<< Spin adapt        0.17
                       o<<<<< Symm adapt        0.00

                       o<<<<< (ab) max sync:      0.00
       2.0078     -76.13660212 -1.68D-12 -1.43D-12  4.34D-09 1.9D-04      2.4



          %%%%% MacroIteration   5 %%%%%


          Number of sigma calls:        1
                       o<<<<< (aa):             0.00
                       o<<<<< (bb):             0.00
                       o<<<<< (ab):             0.00
                       o<<<<< (total)           0.00
                       o<<<<< (aa) ff           0.00
                       o<<<<< (aa) gop          0.00
                       o<<<<< (aa) dot          0.00
                       o<<<<< (ab) str          0.00
                       o<<<<< (ab) gath         0.00
                       o<<<<< (ab) dotab        0.00
                       o<<<<< (ab) scat         0.00
                       o<<<<< (ab) sync         0.00
                       o<<<<< Density           0.00
                       o<<<<< Density one       0.00
                       o<<<<< Density two       0.00
                       o<<<<< Density ab        0.00
                       o<<<<< Spin adapt        0.00
                       o<<<<< Symm adapt        0.00

                       o<<<<< (ab) max sync:      0.00

           >>>| Valence CI:            -85.645207561586
           >>>| MCSCF energy:          -76.136602123312
           >>>| Gradient norm:          0.908123208D-04




     ==============================
            MCSCF Converged
     ==============================



          Canonical Eigenvalues

              1      
    1  -20.5522
    2   -1.3821
    3   -0.7770
    4   -0.5983
    5   -0.5356
    6   -0.0259
    7   -0.0219
    8   -0.0169
    9    0.0697
   10    0.0876
   11    0.2417
   12    0.2779
   13    0.3147
   14    0.4911
   15    0.5090
   16    0.6030
   17    0.9613
   18    1.0342
   19    1.4895
   20    1.5038
   21    1.6167
   22    1.7437
   23    1.9141
   24    2.2787
   25    2.4539
   26    2.7121
   27    2.8405
   28    3.4487
   29    3.6064
   30    3.7229
   31    4.1034
   32    4.2626
   33    5.3037
   34    5.8160
   35    6.3476
   36   51.6280


          Converged CI vector

   Index           Coefficient          Config. Occupation
         1          0.97720945          1  2  3  4  5  1  2  3  4  5
        22         -0.07065354          1  2  3  4  5  1  2  3  4  8
         3         -0.03673446          1  2  3  4  5  1  2  3  5  6
         8         -0.02616552          1  2  3  4  5  1  2  3  5  7
         4          0.02506662          1  2  3  4  5  1  2  4  5  6
         9         -0.03266084          1  2  3  4  5  1  2  4  5  7
        38          0.02126402          1  2  3  4  5  1  2  4  7  8
      1177         -0.07065354          1  2  3  4  8  1  2  3  4  5
      1198         -0.05413670          1  2  3  4  8  1  2  3  4  8
      1179         -0.02346060          1  2  3  4  8  1  2  3  5  6
      1180          0.02225850          1  2  3  4  8  1  2  4  5  6
      1185         -0.02839612          1  2  3  4  8  1  2  4  5  7
       113         -0.03673446          1  2  3  5  6  1  2  3  4  5
       134         -0.02346060          1  2  3  5  6  1  2  3  4  8
       115         -0.03571961          1  2  3  5  6  1  2  3  5  6
       116          0.02854544          1  2  3  5  6  1  2  4  5  6
       393         -0.02616552          1  2  3  5  7  1  2  3  4  5
       400         -0.02127385          1  2  3  5  7  1  2  3  5  7
       401         -0.02190786          1  2  3  5  7  1  2  4  5  7
       169          0.02506662          1  2  4  5  6  1  2  3  4  5
       190          0.02225850          1  2  4  5  6  1  2  3  4  8
       171          0.02854544          1  2  4  5  6  1  2  3  5  6
       172         -0.03878404          1  2  4  5  6  1  2  4  5  6
       173         -0.02101419          1  2  4  5  6  1  3  4  5  6
       449         -0.03266084          1  2  4  5  7  1  2  3  4  5
       470         -0.02839612          1  2  4  5  7  1  2  3  4  8
       456         -0.02190786          1  2  4  5  7  1  2  3  5  7
       457         -0.04180744          1  2  4  5  7  1  2  4  5  7
      2073          0.02126402          1  2  4  7  8  1  2  3  4  5
       228         -0.02101419          1  3  4  5  6  1  2  4  5  6
       229         -0.02209957          1  3  4  5  6  1  3  4  5  6

          Number of sigma calls:        1
                       o<<<<< (aa):             0.00
                       o<<<<< (bb):             0.00
                       o<<<<< (ab):             0.00
                       o<<<<< (total)           0.00
                       o<<<<< (aa) ff           0.00
                       o<<<<< (aa) gop          0.00
                       o<<<<< (aa) dot          0.00
                       o<<<<< (ab) str          0.00
                       o<<<<< (ab) gath         0.00
                       o<<<<< (ab) dotab        0.00
                       o<<<<< (ab) scat         0.00
                       o<<<<< (ab) sync         0.00
                       o<<<<< Density           0.01
                       o<<<<< Density one       0.00
                       o<<<<< Density two       0.00
                       o<<<<< Density ab        0.01
                       o<<<<< Spin adapt        0.00
                       o<<<<< Symm adapt        0.00

                       o<<<<< (ab) max sync:      0.00



          Natural orbital occupation numbers

              1      
    1    2.0000
    2    1.9990
    3    1.9817
    4    1.9815
    5    1.9771
    6    0.0237
    7    0.0189
    8    0.0180


          Number of sigma calls:       15
                       o<<<<< (aa):             0.00
                       o<<<<< (bb):             0.00
                       o<<<<< (ab):             0.05
                       o<<<<< (total)           0.05
                       o<<<<< (aa) ff           0.00
                       o<<<<< (aa) gop          0.00
                       o<<<<< (aa) dot          0.00
                       o<<<<< (ab) str          0.00
                       o<<<<< (ab) gath         0.00
                       o<<<<< (ab) dotab        0.00
                       o<<<<< (ab) scat         0.00
                       o<<<<< (ab) sync         0.00
                       o<<<<< Density           0.01
                       o<<<<< Density one       0.00
                       o<<<<< Density two       0.00
                       o<<<<< Density ab        0.01
                       o<<<<< Spin adapt        0.19
                       o<<<<< Symm adapt        0.00

                       o<<<<< (ab) max sync:      0.00


       Final MCSCF results 
       ------------------- 

       Total MCSCF energy =    -76.136602123312
            Gradient norm =      9.1D-05

    CPU time for solution =      2.7s
   Wall time for solution =      4.7s



                        Analysis of MCSCF natural orbitals
                        ----------------------------------

 Vector    1  Occ=1.999989D+00  E=-2.055223D+01  Symmetry=a
              MO Center= -9.2D-02, -5.4D-02, -1.4D-13, r^2= 1.8D-02
   Bfn.  Coefficient  Atom+Function         Bfn.  Coefficient  Atom+Function  
  ----- ------------  ---------------      ----- ------------  ---------------
     1      0.560506  1 O  s                  2      0.489851  1 O  s          

 Vector    2  Occ=1.999045D+00  E=-1.382066D+00  Symmetry=a
              MO Center= -3.1D-01, -1.8D-01, -4.8D-11, r^2= 4.3D-01
   Bfn.  Coefficient  Atom+Function         Bfn.  Coefficient  Atom+Function  
  ----- ------------  ---------------      ----- ------------  ---------------
     6      0.549406  1 O  s                 10      0.477982  1 O  s          

 Vector    3  Occ=1.981736D+00  E=-7.770064D-01  Symmetry=a
              MO Center= -7.3D-02, -3.8D-02,  3.7D-13, r^2= 7.0D-01
   Bfn.  Coefficient  Atom+Function         Bfn.  Coefficient  Atom+Function  
  ----- ------------  ---------------      ----- ------------  ---------------
     9      0.435371  1 O  pz                13      0.404728  1 O  pz         
     5      0.288044  1 O  pz         

 Vector    4  Occ=1.981543D+00  E=-5.983163D-01  Symmetry=a
              MO Center= -4.7D-02,  3.3D-01,  4.8D-11, r^2= 5.7D-01
   Bfn.  Coefficient  Atom+Function         Bfn.  Coefficient  Atom+Function  
  ----- ------------  ---------------      ----- ------------  ---------------
     8      0.351941  1 O  py                24      0.263334  2 H  s          
     4      0.235633  1 O  py                12      0.212819  1 O  py         
    23      0.204436  2 H  s          

 Vector    5  Occ=1.977054D+00  E=-5.356039D-01  Symmetry=a
              MO Center=  3.4D-01, -1.7D-01,  1.2D-12, r^2= 6.0D-01
   Bfn.  Coefficient  Atom+Function         Bfn.  Coefficient  Atom+Function  
  ----- ------------  ---------------      ----- ------------  ---------------
     7      0.340242  1 O  px                31      0.275979  3 H  s          
     3      0.225043  1 O  px                11      0.225172  1 O  px         
    30      0.190900  3 H  s          

 Vector    6  Occ=2.367661D-02  E=-2.592636D-02  Symmetry=a
              MO Center=  5.1D-01, -2.2D-01,  5.1D-12, r^2= 6.4D-01
   Bfn.  Coefficient  Atom+Function         Bfn.  Coefficient  Atom+Function  
  ----- ------------  ---------------      ----- ------------  ---------------
    31     -0.549296  3 H  s                  7      0.508413  1 O  px         
     6      0.462930  1 O  s                  3      0.426740  1 O  px         
    30     -0.292100  3 H  s                 11     -0.150200  1 O  px         

 Vector    7  Occ=1.894933D-02  E=-2.188126D-02  Symmetry=a
              MO Center= -4.0D-02,  4.8D-01,  2.7D-11, r^2= 6.7D-01
   Bfn.  Coefficient  Atom+Function         Bfn.  Coefficient  Atom+Function  
  ----- ------------  ---------------      ----- ------------  ---------------
    24     -0.603030  2 H  s                  8      0.549225  1 O  py         
     4      0.473184  1 O  py                 6      0.404407  1 O  s          
    23     -0.308302  2 H  s                 12     -0.170517  1 O  py         

 Vector    8  Occ=1.800702D-02  E=-1.690540D-02  Symmetry=a
              MO Center= -5.4D-02, -2.8D-02,  5.4D-11, r^2= 1.3D+00
   Bfn.  Coefficient  Atom+Function         Bfn.  Coefficient  Atom+Function  
  ----- ------------  ---------------      ----- ------------  ---------------
    13      0.662064  1 O  pz                 5     -0.526243  1 O  pz         
     9     -0.453460  1 O  pz                17      0.253387  1 O  pz         

 Vector    9  Occ=0.000000D+00  E= 6.968944D-02  Symmetry=a
              MO Center=  4.9D-01,  3.2D-01, -4.6D-11, r^2= 1.1D+01
   Bfn.  Coefficient  Atom+Function         Bfn.  Coefficient  Atom+Function  
  ----- ------------  ---------------      ----- ------------  ---------------
    26     -0.982048  2 H  s                 33     -0.955696  3 H  s          
    14      0.903941  1 O  s                 32      0.307837  3 H  s          
    10     -0.247355  1 O  s                 25      0.182171  2 H  s          

 Vector   10  Occ=0.000000D+00  E= 8.755395D-02  Symmetry=a
              MO Center=  5.3D-01,  3.1D-01, -1.1D-12, r^2= 1.4D+01
   Bfn.  Coefficient  Atom+Function         Bfn.  Coefficient  Atom+Function  
  ----- ------------  ---------------      ----- ------------  ---------------
    26      2.766732  2 H  s                 33     -2.764169  3 H  s          
    32      0.460780  3 H  s                 16     -0.384943  1 O  py         
    25     -0.327731  2 H  s                 15      0.223088  1 O  px         

 Vector   11  Occ=0.000000D+00  E= 2.416638D-01  Symmetry=a
              MO Center= -1.7D-01, -1.4D-01,  2.5D-11, r^2= 5.6D+00
   Bfn.  Coefficient  Atom+Function         Bfn.  Coefficient  Atom+Function  
  ----- ------------  ---------------      ----- ------------  ---------------
    14      4.375358  1 O  s                 25     -3.575870  2 H  s          
    32     -2.727392  3 H  s                 15      1.927397  1 O  px         
    16      1.582501  1 O  py                11     -0.358456  1 O  px         
    26      0.304505  2 H  s                 10      0.260033  1 O  s          
    12     -0.231048  1 O  py                24      0.178028  2 H  s          

 Vector   12  Occ=0.000000D+00  E= 2.779122D-01  Symmetry=a
              MO Center= -4.6D-01, -2.9D-01,  1.3D-13, r^2= 5.8D+00
   Bfn.  Coefficient  Atom+Function         Bfn.  Coefficient  Atom+Function  
  ----- ------------  ---------------      ----- ------------  ---------------
    25      3.850366  2 H  s                 32     -3.359100  3 H  s          
    16     -3.011117  1 O  py                15      2.042553  1 O  px         
    26      0.900554  2 H  s                 33     -0.795367  3 H  s          
    14     -0.594999  1 O  s                 12      0.300719  1 O  py         
    24     -0.300657  2 H  s                 31      0.258564  3 H  s          

 Vector   13  Occ=0.000000D+00  E= 3.146937D-01  Symmetry=a
              MO Center=  2.5D-02,  4.4D-02, -1.6D-10, r^2= 5.4D+00
   Bfn.  Coefficient  Atom+Function         Bfn.  Coefficient  Atom+Function  
  ----- ------------  ---------------      ----- ------------  ---------------
    14      8.866693  1 O  s                 25     -4.487766  2 H  s          
    32     -3.858718  3 H  s                 15      1.461256  1 O  px         
    16      1.251354  1 O  py                10     -1.163602  1 O  s          
    26     -0.586189  2 H  s                 24      0.279465  2 H  s          
    31      0.224416  3 H  s                 33     -0.214996  3 H  s          

 Vector   14  Occ=0.000000D+00  E= 4.911078D-01  Symmetry=a
              MO Center=  1.2D+00, -6.3D-01, -2.8D-13, r^2= 4.7D+00
   Bfn.  Coefficient  Atom+Function         Bfn.  Coefficient  Atom+Function  
  ----- ------------  ---------------      ----- ------------  ---------------
    32      4.193476  3 H  s                 33     -1.814890  3 H  s          
    25     -1.449991  2 H  s                 31     -1.433959  3 H  s          
    26      1.089644  2 H  s                 14     -0.801367  1 O  s          
    15     -0.431981  1 O  px                24      0.362982  2 H  s          
    16      0.297040  1 O  py                10     -0.184621  1 O  s          

 Vector   15  Occ=0.000000D+00  E= 5.090382D-01  Symmetry=a
              MO Center= -1.6D-01,  1.3D+00,  2.2D-12, r^2= 4.3D+00
   Bfn.  Coefficient  Atom+Function         Bfn.  Coefficient  Atom+Function  
  ----- ------------  ---------------      ----- ------------  ---------------
    25      4.656755  2 H  s                 14     -2.386575  1 O  s          
    24     -1.478374  2 H  s                 26     -1.369325  2 H  s          
    32      0.827744  3 H  s                 16     -0.574065  1 O  py         
    31     -0.384126  3 H  s                 33      0.295641  3 H  s          
     8      0.182603  1 O  py                10     -0.169699  1 O  s          

 Vector   16  Occ=0.000000D+00  E= 6.029967D-01  Symmetry=a
              MO Center= -8.7D-02, -5.1D-02,  1.2D-10, r^2= 5.5D+00
   Bfn.  Coefficient  Atom+Function         Bfn.  Coefficient  Atom+Function  
  ----- ------------  ---------------      ----- ------------  ---------------
    17     -1.452399  1 O  pz                13      1.394389  1 O  pz         
     9     -0.417073  1 O  pz         

 Vector   17  Occ=0.000000D+00  E= 9.612639D-01  Symmetry=a
              MO Center=  8.8D-02, -1.6D-01,  2.4D-11, r^2= 2.6D+00
   Bfn.  Coefficient  Atom+Function         Bfn.  Coefficient  Atom+Function  
  ----- ------------  ---------------      ----- ------------  ---------------
    14      3.918809  1 O  s                 25     -3.296221  2 H  s          
    24      2.746614  2 H  s                 10     -2.524503  1 O  s          
    12     -2.171295  1 O  py                16      1.755385  1 O  py         
    32     -1.538242  3 H  s                 31      1.094875  3 H  s          
    11     -1.062596  1 O  px                15      0.845692  1 O  px         

 Vector   18  Occ=0.000000D+00  E= 1.034170D+00  Symmetry=a
              MO Center= -3.3D-01, -2.4D-02,  2.8D-12, r^2= 2.7D+00
   Bfn.  Coefficient  Atom+Function         Bfn.  Coefficient  Atom+Function  
  ----- ------------  ---------------      ----- ------------  ---------------
    11      2.147893  1 O  px                32      2.140903  3 H  s          
    31     -2.032669  3 H  s                 15     -1.648858  1 O  px         
    12     -1.589339  1 O  py                14     -1.269225  1 O  s          
    16      1.206094  1 O  py                10      0.805159  1 O  s          
    24      0.727000  2 H  s                 26     -0.714543  2 H  s          


 Wrote Lagrangian and 1- and 2-particle density matrices to ./H2O.mcpdm


     Multipole analysis of the density
     ---------------------------------

     L   x y z        total        nuclear
     -   - - -        -----        -------
     0   0 0 0     -0.000000     10.000000

     1   1 0 0      0.665681     -0.000000
     1   0 1 0      0.418692     -0.000000
     1   0 0 1     -0.000000      0.000000

     2   2 0 0     -4.209773      2.679864
     2   1 1 0     -0.843723     -1.293582
     2   1 0 1      0.000000      0.000000
     2   0 2 0     -3.776481      3.071199
     2   0 1 1      0.000000      0.000000
     2   0 0 2     -5.718252      0.000000


  Mulliken analysis of the total density
  --------------------------------------

    Atom       Charge   Shell Charges
 -----------   ------   -------------------------------------------------------
    1 O    8     8.50   1.08  0.91  0.97  0.99  2.10  0.78  1.49 -0.01  0.19  0.01
    2 H    1     0.75   0.30  0.37 -0.00  0.01  0.08
    3 H    1     0.75   0.26  0.40  0.01  0.01  0.07

    Mulliken analysis of the active space density
    ---------------------------------------------

    Atom       Charge   Shell Charges
 -----------   ------   -------------------------------------------------------
    1 O    8     8.50   1.08  0.91  0.97  0.99  2.10  0.78  1.49 -0.01  0.19  0.01
    2 H    1     0.75   0.30  0.37 -0.00  0.01  0.08
    3 H    1     0.75   0.26  0.40  0.01  0.01  0.07

 Parallel integral file used       3 records with       0 large values


 Task  times  cpu:        2.7s     wall:        4.7s


                                NWChem Input Module
                                -------------------


                                 NWChem SCF Module
                                 -----------------


                                        H2O



  ao basis        = "ao basis"
  functions       =    36
  atoms           =     3
  closed shells   =     5
  open shells     =     0
  charge          =   0.00
  wavefunction    = RHF 
  input vectors   = ./h2o.mos
  output vectors  = ./h2o-trash.mos
  use symmetry    = F
  symmetry adapt  = F


 Summary of "ao basis" -> "ao basis" (spherical)
 ------------------------------------------------------------------------------
       Tag                 Description            Shells   Functions and Types
 ---------------- ------------------------------  ------  ---------------------
 O                         6-311++G**               10       22   5s4p1d
 H                         6-311++G**                5        7   4s1p



 Forming initial guess at       4.7s


 Loading old vectors from job with title :

H2O


 Starting SCF solution at       4.7s



 ----------------------------------------------
         Quadratically convergent ROHF

 Convergence threshold     :          1.000E-04
 Maximum no. of iterations :           30
 Final Fock-matrix accuracy:          1.000E-07
 ----------------------------------------------


 Integral file          = ./H2O.aoints.0
 Record size in doubles =  65536        No. of integs per rec  =  43688
 Max. records in memory =     10        Max. records in file   = 232468
 No. of bits per label  =      8        No. of bits per value  =     64


 #quartets = 2.216D+04 #integrals = 1.002D+05 #direct =  0.0% #cached =100.0%



       Final RHF  results 
       ------------------ 

         Total SCF energy =    -76.045333022090
      One-electron energy =   -123.530510555840
      Two-electron energy =     37.976572095475
 Nuclear repulsion energy =      9.508605438275

        Time for solution =      0.0s


             Final eigenvalues
             -----------------

              1      
    1  -20.5522
    2   -1.3821
    3   -0.7770
    4   -0.5983
    5   -0.5356
    6   -0.0259
    7   -0.0219
    8   -0.0169
    9    0.0697
   10    0.0876
   11    0.2417
   12    0.2779
   13    0.3147
   14    0.4911
   15    0.5090

                       ROHF Final Molecular Orbital Analysis
                       -------------------------------------

 Vector    2  Occ=2.000000D+00  E=-1.382066D+00
              MO Center= -3.1D-01, -1.8D-01, -4.8D-11, r^2= 4.3D-01
   Bfn.  Coefficient  Atom+Function         Bfn.  Coefficient  Atom+Function  
  ----- ------------  ---------------      ----- ------------  ---------------
     6      0.549406  1 O  s                 10      0.477982  1 O  s          

 Vector    3  Occ=2.000000D+00  E=-7.770064D-01
              MO Center= -7.3D-02, -3.8D-02,  3.7D-13, r^2= 7.0D-01
   Bfn.  Coefficient  Atom+Function         Bfn.  Coefficient  Atom+Function  
  ----- ------------  ---------------      ----- ------------  ---------------
     9      0.435371  1 O  pz                13      0.404728  1 O  pz         
     5      0.288044  1 O  pz         

 Vector    4  Occ=2.000000D+00  E=-5.983163D-01
              MO Center= -4.7D-02,  3.3D-01,  4.8D-11, r^2= 5.7D-01
   Bfn.  Coefficient  Atom+Function         Bfn.  Coefficient  Atom+Function  
  ----- ------------  ---------------      ----- ------------  ---------------
     8      0.351941  1 O  py                24      0.263334  2 H  s          
     4      0.235633  1 O  py                12      0.212819  1 O  py         
    23      0.204436  2 H  s          

 Vector    5  Occ=2.000000D+00  E=-5.356039D-01
              MO Center=  3.4D-01, -1.7D-01,  1.2D-12, r^2= 6.0D-01
   Bfn.  Coefficient  Atom+Function         Bfn.  Coefficient  Atom+Function  
  ----- ------------  ---------------      ----- ------------  ---------------
     7      0.340242  1 O  px                31      0.275979  3 H  s          
     3      0.225043  1 O  px                11      0.225172  1 O  px         
    30      0.190900  3 H  s          

 Vector    6  Occ=0.000000D+00  E=-2.592636D-02
              MO Center=  5.1D-01, -2.2D-01,  5.1D-12, r^2= 6.4D-01
   Bfn.  Coefficient  Atom+Function         Bfn.  Coefficient  Atom+Function  
  ----- ------------  ---------------      ----- ------------  ---------------
    31     -0.549296  3 H  s                  7      0.508413  1 O  px         
     6      0.462930  1 O  s                  3      0.426740  1 O  px         
    30     -0.292100  3 H  s                 11     -0.150200  1 O  px         

 Vector    7  Occ=0.000000D+00  E=-2.188126D-02
              MO Center= -4.0D-02,  4.8D-01,  2.7D-11, r^2= 6.7D-01
   Bfn.  Coefficient  Atom+Function         Bfn.  Coefficient  Atom+Function  
  ----- ------------  ---------------      ----- ------------  ---------------
    24     -0.603030  2 H  s                  8      0.549225  1 O  py         
     4      0.473184  1 O  py                 6      0.404407  1 O  s          
    23     -0.308302  2 H  s                 12     -0.170517  1 O  py         

 Vector    8  Occ=0.000000D+00  E=-1.690540D-02
              MO Center= -5.4D-02, -2.8D-02,  5.4D-11, r^2= 1.3D+00
   Bfn.  Coefficient  Atom+Function         Bfn.  Coefficient  Atom+Function  
  ----- ------------  ---------------      ----- ------------  ---------------
    13      0.662064  1 O  pz                 5     -0.526243  1 O  pz         
     9     -0.453460  1 O  pz                17      0.253387  1 O  pz         

 Vector    9  Occ=0.000000D+00  E= 6.968944D-02
              MO Center=  4.9D-01,  3.2D-01, -4.6D-11, r^2= 1.1D+01
   Bfn.  Coefficient  Atom+Function         Bfn.  Coefficient  Atom+Function  
  ----- ------------  ---------------      ----- ------------  ---------------
    26     -0.982048  2 H  s                 33     -0.955696  3 H  s          
    14      0.903941  1 O  s                 32      0.307837  3 H  s          
    10     -0.247355  1 O  s                 25      0.182171  2 H  s          

 Vector   10  Occ=0.000000D+00  E= 8.755395D-02
              MO Center=  5.3D-01,  3.1D-01, -1.1D-12, r^2= 1.4D+01
   Bfn.  Coefficient  Atom+Function         Bfn.  Coefficient  Atom+Function  
  ----- ------------  ---------------      ----- ------------  ---------------
    26      2.766732  2 H  s                 33     -2.764169  3 H  s          
    32      0.460780  3 H  s                 16     -0.384943  1 O  py         
    25     -0.327731  2 H  s                 15      0.223088  1 O  px         

 Vector   11  Occ=0.000000D+00  E= 2.416638D-01
              MO Center= -1.7D-01, -1.4D-01,  2.5D-11, r^2= 5.6D+00
   Bfn.  Coefficient  Atom+Function         Bfn.  Coefficient  Atom+Function  
  ----- ------------  ---------------      ----- ------------  ---------------
    14      4.375358  1 O  s                 25     -3.575870  2 H  s          
    32     -2.727392  3 H  s                 15      1.927397  1 O  px         
    16      1.582501  1 O  py                11     -0.358456  1 O  px         
    26      0.304505  2 H  s                 10      0.260033  1 O  s          
    12     -0.231048  1 O  py                24      0.178028  2 H  s          

 Vector   12  Occ=0.000000D+00  E= 2.779122D-01
              MO Center= -4.6D-01, -2.9D-01,  1.3D-13, r^2= 5.8D+00
   Bfn.  Coefficient  Atom+Function         Bfn.  Coefficient  Atom+Function  
  ----- ------------  ---------------      ----- ------------  ---------------
    25      3.850366  2 H  s                 32     -3.359100  3 H  s          
    16     -3.011117  1 O  py                15      2.042553  1 O  px         
    26      0.900554  2 H  s                 33     -0.795367  3 H  s          
    14     -0.594999  1 O  s                 12      0.300719  1 O  py         
    24     -0.300657  2 H  s                 31      0.258564  3 H  s          

 Vector   13  Occ=0.000000D+00  E= 3.146937D-01
              MO Center=  2.5D-02,  4.4D-02, -1.6D-10, r^2= 5.4D+00
   Bfn.  Coefficient  Atom+Function         Bfn.  Coefficient  Atom+Function  
  ----- ------------  ---------------      ----- ------------  ---------------
    14      8.866693  1 O  s                 25     -4.487766  2 H  s          
    32     -3.858718  3 H  s                 15      1.461256  1 O  px         
    16      1.251354  1 O  py                10     -1.163602  1 O  s          
    26     -0.586189  2 H  s                 24      0.279465  2 H  s          
    31      0.224416  3 H  s                 33     -0.214996  3 H  s          

 Vector   14  Occ=0.000000D+00  E= 4.911078D-01
              MO Center=  1.2D+00, -6.3D-01, -2.8D-13, r^2= 4.7D+00
   Bfn.  Coefficient  Atom+Function         Bfn.  Coefficient  Atom+Function  
  ----- ------------  ---------------      ----- ------------  ---------------
    32      4.193476  3 H  s                 33     -1.814890  3 H  s          
    25     -1.449991  2 H  s                 31     -1.433959  3 H  s          
    26      1.089644  2 H  s                 14     -0.801367  1 O  s          
    15     -0.431981  1 O  px                24      0.362982  2 H  s          
    16      0.297040  1 O  py                10     -0.184621  1 O  s          

 Vector   15  Occ=0.000000D+00  E= 5.090382D-01
              MO Center= -1.6D-01,  1.3D+00,  2.2D-12, r^2= 4.3D+00
   Bfn.  Coefficient  Atom+Function         Bfn.  Coefficient  Atom+Function  
  ----- ------------  ---------------      ----- ------------  ---------------
    25      4.656755  2 H  s                 14     -2.386575  1 O  s          
    24     -1.478374  2 H  s                 26     -1.369325  2 H  s          
    32      0.827744  3 H  s                 16     -0.574065  1 O  py         
    31     -0.384126  3 H  s                 33      0.295641  3 H  s          
     8      0.182603  1 O  py                10     -0.169699  1 O  s          


 center of mass
 --------------
 x =  -0.07599894 y =  -0.04450522 z =   0.00000000

 moments of inertia (a.u.)
 ------------------
           3.140556116871           1.226305935894           0.000000000000
           1.226305935894           2.833002082974           0.000000000000
           0.000000000000           0.000000000000           5.973558199845

  Mulliken analysis of the total density
  --------------------------------------

    Atom       Charge   Shell Charges
 -----------   ------   -------------------------------------------------------
    1 O    8     8.51   1.08  0.91  0.96  0.98  2.11  0.78  1.50 -0.01  0.18  0.01
    2 H    1     0.75   0.30  0.36 -0.00  0.01  0.08
    3 H    1     0.74   0.26  0.40  0.02  0.01  0.07

       Multipole analysis of the density wrt the origin
       ------------------------------------------------

     L   x y z        total         open         nuclear
     -   - - -        -----         ----         -------
     0   0 0 0     -0.000000      0.000000     10.000000

     1   1 0 0      0.674946      0.000000     -0.000000
     1   0 1 0      0.422917      0.000000     -0.000000
     1   0 0 1     -0.000000      0.000000      0.000000

     2   2 0 0     -4.184907      0.000000      2.679864
     2   1 1 0     -0.850280      0.000000     -1.293582
     2   1 0 1      0.000000      0.000000      0.000000
     2   0 2 0     -3.751193      0.000000      3.071199
     2   0 1 1      0.000000      0.000000      0.000000
     2   0 0 2     -5.694180      0.000000      0.000000


 Parallel integral file used       3 records with       0 large values

                   NWChem Extensible Many-Electron Theory Module
                   ---------------------------------------------

              ======================================================
                   This portion of the program was automatically
                  generated by a Tensor Contraction Engine (TCE).
                  The development of this portion of the program
                 and TCE was supported by US Department of Energy,
                Office of Science, Office of Basic Energy Science.
                      TCE is a product of Battelle and PNNL.
              Please cite: S.Hirata, J.Phys.Chem.A 107, 9887 (2003).
              ======================================================

                                        H2O


            General Information
            -------------------
      Number of processors :     1
         Wavefunction type : Restricted Hartree-Fock
          No. of electrons :    10
           Alpha electrons :     5
            Beta electrons :     5
           No. of orbitals :    72
            Alpha orbitals :    36
             Beta orbitals :    36
        Alpha frozen cores :     0
         Beta frozen cores :     0
     Alpha frozen virtuals :     0
      Beta frozen virtuals :     0
         Spin multiplicity : singlet 
    Number of AO functions :    36
       Number of AO shells :    20
        Use of symmetry is : off
      Symmetry adaption is : off
         Schwarz screening : 0.10D-09

          Correlation Information
          -----------------------
          Calculation type : Coupled-cluster singles & doubles                           
   Perturbative correction : none                                                        
            Max iterations :      300
        Residual threshold : 0.10D-06
     T(0) DIIS level shift : 0.00D+00
     L(0) DIIS level shift : 0.00D+00
     T(1) DIIS level shift : 0.00D+00
     L(1) DIIS level shift : 0.00D+00
     T(R) DIIS level shift : 0.00D+00
     T(I) DIIS level shift : 0.00D+00
   CC-T/L Amplitude update :  5-th order DIIS
                I/O scheme : Global Array Library
        L-threshold :  0.10D-06
        EOM-threshold :  0.10D-06
 no EOMCCSD initial starts read in
 TCE RESTART OPTIONS
 READ_INT:   F
 WRITE_INT:  F
 READ_TA:    F
 WRITE_TA:   F
 READ_XA:    F
 WRITE_XA:   F
 READ_IN3:   F
 WRITE_IN3:  F
 SLICE:      F
 D4D5:       F
 quantumc:   F
 qrotation:  F
 pwtce:      F
 qducc:      T
 nacto:                         0
 nrotv:                         0
 nrot:                          0

            Memory Information
            ------------------
          Available GA space size is    1610611440 doubles
          Available MA space size is    1610610740 doubles

 Maximum block size        32 doubles

 tile_dim =     31

 Block   Spin    Irrep     Size     Offset   Alpha
 -------------------------------------------------
   1    alpha     a      5 doubles       0       1
   2    beta      a      5 doubles       5       1
   3    alpha     a     31 doubles      10       3
   4    beta      a     31 doubles      41       3

 Global array virtual files algorithm will be used

 Parallel file system coherency ......... OK

 Integral file          = ./H2O.aoints.0
 Record size in doubles =  65536        No. of integs per rec  =  43688
 Max. records in memory =     10        Max. records in file   = 232468
 No. of bits per label  =      8        No. of bits per value  =     64


 #quartets = 2.216D+04 #integrals = 1.003D+05 #direct =  0.0% #cached =100.0%


 Fock matrix recomputed
 1-e file size   =             1296
 1-e file name   = ./H2O.f1
 Cpu & wall time / sec            0.0            0.0
 4-electron integrals stored in orbital form

 v2    file size   =          1125026
 4-index algorithm nr.  13 is used
 imaxsize =       30
 imaxsize ichop =        0
 Cpu & wall time / sec            0.2            0.2
 T1-number-of-tasks                    1

 t1 file size   =              155
 t1 file name   = ./H2O.t1
 t1 file handle =       -998
 T2-number-of-boxes                    2

 t2 file size   =            48050
 t2 file name   = ./H2O.t2
 t2 file handle =       -996
CCSD iterations
 ---------------------------------------------------------
 Iter          Residuum       Correlation     Cpu    Wall 
 ---------------------------------------------------------
NEW TASK SCHEDULING
CCSD_T1_NTS --- OK
CCSD_T2_NTS --- OK
    1   1.1650277812314  -0.4057098744589     0.0     0.0
    2   2.2174065882291   0.0887850945824     0.0     0.0
    3   4.5271204546426  -0.8959751925096     0.0     0.0
    4   9.6970358691270   1.0593770331967     0.0     0.0
    5  13.2146462167465  -2.5422782874118     0.0     0.0
 MICROCYCLE DIIS UPDATE:                    5                    5
    6   0.0958416389667  -0.2364280700066     0.0     0.0
    7   0.1468201850943  -0.2560263598489     0.0     0.0
    8   0.3283512310276  -0.2060973834966     0.0     0.0
    9   0.7392502022206  -0.2760249004631     0.0     0.0
   10   1.6579542269957   0.1457686929073     0.0     0.0
 MICROCYCLE DIIS UPDATE:                   10                    5
   11   0.0116883462346  -0.2460797144196     0.0     0.0
   12   0.0120546288652  -0.2451652804995     0.0     0.0
   13   0.0261801481510  -0.2479260233448     0.0     0.0
   14   0.0634113576898  -0.2401343530523     0.0     0.0
   15   0.1526183531624  -0.2556273922283     0.0     0.0
 MICROCYCLE DIIS UPDATE:                   15                    5
   16   0.0010077086632  -0.2461021610258     0.0     0.0
   17   0.0011559516080  -0.2460141206084     0.0     0.0
   18   0.0023463879035  -0.2462940678562     0.0     0.0
   19   0.0056465515944  -0.2455942127569     0.0     0.0
   20   0.0135580668267  -0.2473173423375     0.0     0.0
 MICROCYCLE DIIS UPDATE:                   20                    5
   21   0.0001136035641  -0.2461122165280     0.0     0.0
   22   0.0001063811316  -0.2460949537112     0.0     0.0
   23   0.0001842443389  -0.2461253563823     0.0     0.0
   24   0.0003519885379  -0.2460668131671     0.0     0.0
   25   0.0006863374643  -0.2461797215869     0.0     0.0
 MICROCYCLE DIIS UPDATE:                   25                    5
   26   0.0000172002301  -0.2461049708621     0.0     0.0
   27   0.0000178227951  -0.2461067635817     0.0     0.0
   28   0.0000338664605  -0.2461030473881     0.0     0.0
   29   0.0000752115742  -0.2461120705658     0.0     0.0
   30   0.0001747094504  -0.2460905049580     0.0     0.0
 MICROCYCLE DIIS UPDATE:                   30                    5
   31   0.0000030828355  -0.2461057455897     0.0     0.0
   32   0.0000031992528  -0.2461058322768     0.0     0.0
   33   0.0000055479541  -0.2461055498507     0.0     0.0
   34   0.0000108169685  -0.2461061812077     0.0     0.0
   35   0.0000221197936  -0.2461047854682     0.0     0.0
 MICROCYCLE DIIS UPDATE:                   35                    5
   36   0.0000005549361  -0.2461057442028     0.0     0.0
   37   0.0000004921797  -0.2461057535147     0.0     0.0
   38   0.0000008004308  -0.2461057454306     0.0     0.0
   39   0.0000016923489  -0.2461057693916     0.0     0.0
   40   0.0000038075608  -0.2461057025642     0.0     0.0
 MICROCYCLE DIIS UPDATE:                   40                    5
   41   0.0000001096765  -0.2461057510995     0.0     0.0
   42   0.0000001096234  -0.2461057561008     0.0     0.0
   43   0.0000001865784  -0.2461057428397     0.0     0.0
   44   0.0000003574659  -0.2461057734055     0.0     0.0
   45   0.0000007208072  -0.2461057042175     0.0     0.0
 MICROCYCLE DIIS UPDATE:                   45                    5
   46   0.0000000201857  -0.2461057521619     0.0     0.0
 -----------------------------------------------------------------
 Iterations converged
 CCSD correlation energy / hartree =        -0.246105752161920
 CCSD total energy / hartree       =       -76.291438774252171

 Singles contributions

 Doubles contributions
     6a   (alpha)     7a   (alpha) ---     4a   (alpha)     5a   (alpha)        0.0201829729
     6a   (alpha)     7a   (alpha) ---     5a   (alpha)     4a   (alpha)       -0.0201829729
     6a   (alpha)     8a   (alpha) ---     3a   (alpha)     5a   (alpha)       -0.0266081459
     6a   (alpha)     8a   (alpha) ---     5a   (alpha)     3a   (alpha)        0.0266081459
     7a   (alpha)     6a   (alpha) ---     4a   (alpha)     5a   (alpha)       -0.0201829729
     7a   (alpha)     6a   (alpha) ---     5a   (alpha)     4a   (alpha)        0.0201829729
     7a   (alpha)     8a   (alpha) ---     3a   (alpha)     4a   (alpha)       -0.0258288153
     7a   (alpha)     8a   (alpha) ---     4a   (alpha)     3a   (alpha)        0.0258288153
     8a   (alpha)     6a   (alpha) ---     3a   (alpha)     5a   (alpha)        0.0266081459
     8a   (alpha)     6a   (alpha) ---     5a   (alpha)     3a   (alpha)       -0.0266081459
     8a   (alpha)     7a   (alpha) ---     3a   (alpha)     4a   (alpha)        0.0258288153
     8a   (alpha)     7a   (alpha) ---     4a   (alpha)     3a   (alpha)       -0.0258288153
     6a   (alpha)     6a   (beta ) ---     5a   (alpha)     5a   (beta )       -0.0806493098
     6a   (alpha)     7a   (beta ) ---     5a   (alpha)     4a   (beta )       -0.0299058224
     6a   (alpha)     8a   (beta ) ---     5a   (alpha)     3a   (beta )        0.0375055718
     7a   (alpha)     6a   (beta ) ---     4a   (alpha)     5a   (beta )       -0.0299058224
     7a   (alpha)     7a   (beta ) ---     4a   (alpha)     4a   (beta )       -0.0661111781
     7a   (alpha)     8a   (beta ) ---     4a   (alpha)     3a   (beta )        0.0358103242
     8a   (alpha)     6a   (beta ) ---     3a   (alpha)     5a   (beta )        0.0375055718
     8a   (alpha)     7a   (beta ) ---     3a   (alpha)     4a   (beta )        0.0358103242
     8a   (alpha)     8a   (beta ) ---     3a   (alpha)     3a   (beta )       -0.0566888223
 Ground state specification:
 exp(T)|Ref>~(1+T)|Ref>
 ------- a(p)+/a(q) strings ----------

 singles norm

 doubles norm

 Reference string
   1.0000000000000000      :(1a)+ (2a)+ (3a)+ (4a)+ (5a)+ (1b)+ (2b)+ (3b)+ (4b)+ (5b)+ |0>

 Singles strings

 Doubles strings
 -------------------------------------
 enrep_tce =    9.5086054382747811     
  EHF(total)         =       -76.04533302
  Shift (HFtot-HFA)  =         0.00000000
 ALL OCCUPIED ORBITALS ARE ACTIVE IN DUCC --> NO SHIFT
 Number of active orbitals                    8
 Number of active alpha electrons                    5
 Number of active beta electrons                    5
  nos                    10
  nvs                    62
 noas                     5
 nobs                     5
 nvas                    31
 nvbs                    31
 nactv                     3
 DUCC MODEL =                     6
 NONHF =  T
 F-T1 correlation    =    9.4309176769570167E-005
 V-T1-T1 correlation =   -2.3770413525379689E-007
 V-T2 correlation    =  -0.24619982363478898     
 Total correlation   =  -0.24610575216215466     
 F-T1(Ext) correlation         =    1.1495458667393535E-004
 V-T1(Ext)-T1(Ext) correlation =    6.1771519026304273E-006
 V-T2(Ext) correlation         =  -0.16058011724018401     
 Total Ext correlation         =  -0.16045898550160745     
1-BODY TIME =   18.347 SECONDS.
  HHHH TIME =   21.663 SECONDS.
  PPPP TIME =    0.110 SECONDS.
  HHHP TIME =    3.367 SECONDS.
  PPPH TIME =    0.327 SECONDS.
  HPHP TIME =    2.085 SECONDS.
  HHPP TIME =    1.821 SECONDS.
 ONE-BODY UNITARY CHECK
 TWO-BODY UNITARY CHECK
                    1                    1                    1                    2   1.0451405696896931E-011
                    1                    1                    1                    4   1.4059389641070997E-011
                    1                    1                    1                    5   1.2363218129819454E-011
                    1                    1                    2                    1  -1.0451409025925218E-011
                    1                    1                    2                    4  -1.6333656162609978E-010
                    1                    1                    2                    5  -1.7804466937548679E-010
                    1                    1                    4                    1  -1.4059391905161734E-011
                    1                    1                    4                    2   1.6333656164960991E-010
                    1                    1                    4                    5   4.4248934658029747E-012
                    1                    1                    5                    1  -1.2363218035694882E-011
                    1                    1                    5                    2   1.7804466928721793E-010
                    1                    1                    5                    4  -4.4248934645349585E-012
                    1                    2                    1                    1  -1.0451405696896931E-011
                    1                    2                    1                    4  -2.7083064957356129E-011
                    1                    2                    1                    5  -2.1435986232581916E-011
                    1                    2                    2                    1   1.4590217922716420E-010
                    1                    2                    2                    2  -4.1878968421691432E-010
                    1                    2                    2                    4   4.0325307849864434E-010
                    1                    2                    2                    5   3.5958992554430136E-010
                    1                    2                    3                    3   6.0658417272645436E-012
                    1                    2                    4                    1  -9.0047450398977880E-011
                    1                    2                    4                    2   2.0885482579502401E-010
                    1                    2                    4                    4  -1.2477494437864796E-010
                    1                    2                    4                    5  -1.7409626379958666E-010
                    1                    2                    5                    1  -8.2084031845924832E-011
                    1                    2                    5                    2   1.3998172759821514E-010
                    1                    2                    5                    4  -1.4814857820328806E-010
                    1                    2                    5                    5  -4.6110132418837774E-011
                    1                    3                    2                    3  -8.6610349187693503E-010
                    1                    3                    3                    1   5.2059911936908065E-010
                    1                    3                    3                    2  -1.4588933732948006E-009
                    1                    3                    3                    4   2.2340386658659117E-010
                    1                    3                    3                    5   1.4203625602060566E-010
                    1                    3                    4                    3   5.6668495156814158E-010
                    1                    3                    5                    3   4.8058948660945067E-010
                    1                    4                    1                    1  -1.4059389641070997E-011
                    1                    4                    1                    2   2.7083064957356129E-011
                    1                    4                    1                    5   2.2755807654872839E-012
                    1                    4                    2                    1  -7.8270567110960698E-012
                    1                    4                    2                    2   2.8562170639423090E-010
                    1                    4                    2                    4  -4.7757825038380330E-010
                    1                    4                    2                    5  -6.4935149949154128E-011
                    1                    4                    3                    3   4.1984459679391641E-011
                    1                    4                    4                    1   2.5738855491397317E-010
                    1                    4                    4                    2  -7.1968726030741115E-010
                    1                    4                    4                    4   1.2073333712682216E-010
                    1                    4                    4                    5   2.2180016504003142E-011
                    1                    4                    5                    1  -3.9761891695855311E-011
                    1                    4                    5                    2  -1.1958155074335598E-010
                    1                    4                    5                    4   4.6958957729270612E-010
                    1                    4                    5                    5   5.4579501495964302E-011
                    1                    5                    1                    1  -1.2363218129819454E-011
                    1                    5                    1                    2   2.1435986232581916E-011
                    1                    5                    1                    4  -2.2755807654872839E-012
                    1                    5                    2                    1   2.0222123454927132E-011
                    1                    5                    2                    2   1.6204736422282997E-010
                    1                    5                    2                    4   5.3653651996537349E-011
                    1                    5                    2                    5  -4.3380269341974920E-010
                    1                    5                    3                    3   3.3390569985138472E-011
                    1                    5                    4                    1  -5.8924561410766962E-011
                    1                    5                    4                    2  -1.0733927162636780E-010
                    1                    5                    4                    4   5.3122965978304577E-011
                    1                    5                    4                    5   4.2418017449225021E-010
                    1                    5                    5                    1   1.5055223734350420E-010
                    1                    5                    5                    2  -2.8587678231606350E-011
                    1                    5                    5                    4  -2.2895625499674832E-010
                    1                    5                    5                    5  -1.6434461704611149E-010
                    1                    6                    1                    7  -4.1482931673053614E-011
                    1                    6                    1                    9  -4.7175319206615995E-012
                    1                    6                    2                    6  -8.8401563846929321E-011
                    1                    6                    2                    7  -1.8770364776377058E-010
                    1                    6                    2                    9   2.0451753441827480E-010
                    1                    6                    2                   10   1.1048435235271048E-010
                    1                    6                    3                    8  -1.2161960431800178E-009
                    1                    6                    4                    6   6.8294633837062690E-011
                    1                    6                    4                    7   1.5169534465370171E-012
                    1                    6                    4                    9  -8.6194956033791570E-010
                    1                    6                    4                   10   2.3689348009267586E-010
                    1                    6                    5                    6   6.6086330852144215E-011
                    1                    6                    5                    7   2.9713905381340000E-011
                    1                    6                    5                    9   2.4669150966785680E-010
                    1                    6                    5                   10  -7.1310179983186117E-010
                    1                    6                    6                    2   5.1934321426694297E-011
                    1                    6                    6                    4   1.8776979970880348E-011
                    1                    6                    6                    5   1.2082279621239422E-011
                    1                    6                    7                    1   7.7950174093288638E-011
                    1                    6                    7                    2   1.8770364776377058E-010
                    1                    6                    7                    4  -3.6785409158850146E-010
                    1                    6                    7                    5  -2.8852902532461311E-010
                    1                    6                    8                    3   1.2161960431800178E-009
                    1                    6                    9                    1  -8.2354081887281438E-011
                    1                    6                    9                    2   1.6181960372368964E-010
                    1                    6                    9                    4   8.6194956033791570E-010
                    1                    6                    9                    5  -2.3246859081824112E-010
                    1                    6                   10                    1  -7.8449566287552841E-011
                    1                    6                   10                    2   1.4833076715688176E-010
                    1                    6                   10                    4  -2.5111639894229154E-010
                    1                    6                   10                    5   7.1310179983186117E-010
                    1                    7                    1                    6   4.1482931673053614E-011
                    1                    7                    1                    9   2.8821684622259980E-011
                    1                    7                    1                   10   3.1419188431525136E-011
                    1                    7                    2                    6   5.5352871418390404E-010
                    1                    7                    2                    7   5.2924394380871043E-010
                    1                    7                    2                    9  -3.6221959524677938E-010
                    1                    7                    2                   10  -1.6188527796924534E-010
                    1                    7                    3                    8   2.4218999444824973E-009
                    1                    7                    4                    6  -2.5708481567535135E-010
                    1                    7                    4                    7  -6.3805771430280878E-011
                    1                    7                    4                    9   1.6110907365141092E-009
                    1                    7                    4                   10  -4.3432006271602527E-010
                    1                    7                    5                    6  -2.3234952742194614E-010
                    1                    7                    5                    7   1.6754991664924557E-010
                    1                    7                    5                    9  -5.2428746049194407E-010
                    1                    7                    5                   10   1.5098486697007196E-009
                    1                    7                    6                    1  -5.1934335304482104E-011
[...]
    7    7    4    1        0.0034748134
    7    7    4    2        0.0739888169
    7    7    4    4        0.7633401848
    7    7    4    5        0.0093616546
    7    7    4    6        0.0126708880
    7    7    4    7        0.1394055153
    7    8    4    3       -0.0286191339
    7    8    4    8        0.0089952157
    7    1    5    1        0.0021728283
    7    1    5    2       -0.0051951579
    7    1    5    4        0.0047341375
    7    1    5    5       -0.0054260535
    7    1    5    6       -0.0046134619
    7    1    5    7        0.0051509214
    7    2    5    1       -0.0032360547
    7    2    5    2       -0.0176558223
    7    2    5    4        0.0054746624
    7    2    5    5       -0.0006648472
    7    2    5    6        0.0015710579
    7    2    5    7        0.0018746217
    7    3    5    3        0.0012214302
    7    3    5    8       -0.0006243151
    7    4    5    1       -0.0036454189
    7    4    5    2        0.0046379502
    7    4    5    4        0.0068594921
    7    4    5    5        0.1480372452
    7    4    5    6        0.1076557306
    7    4    5    7       -0.0095775564
    7    5    5    1        0.0033894849
    7    5    5    2        0.0071120662
    7    5    5    4        0.0133756181
    7    5    5    5       -0.0028239576
    7    5    5    6       -0.0096215355
    7    5    5    7        0.0186795419
    7    6    5    1        0.0041036354
    7    6    5    2        0.0042755401
    7    6    5    4        0.0248001443
    7    6    5    5       -0.0062251590
    7    6    5    6        0.0038222347
    7    6    5    7        0.0186257529
    7    7    5    1       -0.0066246700
    7    7    5    2       -0.0107554743
    7    7    5    4        0.0093616546
    7    7    5    5        0.5816576708
    7    7    5    6        0.1844346115
    7    7    5    7       -0.0055052598
    7    8    5    3       -0.0032367576
    7    8    5    8        0.0003501439
    7    1    6    1        0.0058391406
    7    1    6    2       -0.0049141888
    7    1    6    4        0.0062123566
    7    1    6    5       -0.0045628647
    7    1    6    6       -0.0094778883
    7    1    6    7        0.0101585717
    7    2    6    1       -0.0047316810
    7    2    6    2       -0.0201292606
    7    2    6    4        0.0090497495
    7    2    6    5        0.0038417958
    7    2    6    6        0.0001334086
    7    2    6    7        0.0086654771
    7    3    6    3        0.0050196073
    7    3    6    8       -0.0023421259
    7    4    6    1       -0.0049076554
    7    4    6    2        0.0085393743
    7    4    6    4        0.0181304307
    7    4    6    5        0.1039849173
    7    4    6    6        0.1760047868
    7    4    6    7       -0.0068747275
    7    5    6    1        0.0052721034
    7    5    6    2        0.0050851553
    7    5    6    4        0.0173676636
    7    5    6    5       -0.0090224915
    7    5    6    6       -0.0020870406
    7    5    6    7        0.0186257529
    7    6    6    1        0.0062732763
    7    6    6    2        0.0057471034
    7    6    6    4        0.0187306465
    7    6    6    5        0.0038233617
    7    6    6    6       -0.0069664835
    7    6    6    7        0.0319941862
    7    7    6    1       -0.0106047108
    7    7    6    2        0.0017539586
    7    7    6    4        0.0126708880
    7    7    6    5        0.1844346115
    7    7    6    6        0.6058494888
    7    7    6    7        0.0145096913
    7    8    6    3       -0.0023370450
    7    8    6    8        0.0056704883
    7    1    7    1        0.0574413388
    7    1    7    2        0.0253314928
    7    1    7    4        0.0043358997
    7    1    7    5        0.0048510668
    7    1    7    6        0.0100224858
    7    1    7    7        0.0154023163
    7    2    7    1        0.0253314928
    7    2    7    2        0.0572070739
    7    2    7    4        0.0194904412
    7    2    7    5        0.0022802789
    7    2    7    6        0.0088812306
    7    2    7    7        0.0184365960
    7    3    7    3        0.0252966218
    7    3    7    8       -0.0170445877
    7    4    7    1        0.0043358997
    7    4    7    2        0.0194904412
    7    4    7    4        0.1931801407
    7    4    7    5       -0.0100615545
    7    4    7    6       -0.0069212614
    7    4    7    7        0.1394055153
    7    5    7    1        0.0048510668
    7    5    7    2        0.0022802789
    7    5    7    4       -0.0100615545
    7    5    7    5        0.0202729296
    7    5    7    6        0.0189639053
    7    5    7    7       -0.0055052598
    7    6    7    1        0.0100224858
    7    6    7    2        0.0088812306
    7    6    7    4       -0.0069212614
    7    6    7    5        0.0189639053
    7    6    7    6        0.0319926309
    7    6    7    7        0.0145096913
    7    7    7    1        0.0154023163
    7    7    7    2        0.0184365960
    7    7    7    4        0.1394055153
    7    7    7    5       -0.0055052598
    7    7    7    6        0.0145096913
    7    7    7    7        0.7995370493
    7    8    7    3       -0.0170445877
    7    8    7    8        0.0303494699
    7    1    8    3        0.0044040634
    7    1    8    8       -0.0068380946
    7    2    8    3       -0.0084736724
    7    2    8    8        0.0058574145
    7    3    8    1       -0.0076960188
    7    3    8    2       -0.0111701346
    7    3    8    4       -0.0190510775
    7    3    8    5       -0.0005497578
    7    3    8    6       -0.0024261380
    7    3    8    7       -0.0172211338
    7    4    8    3       -0.1188413724
    7    4    8    8        0.1559254347
    7    5    8    3        0.0082179585
    7    5    8    8       -0.0107334714
    7    6    8    3        0.0038635456
    7    6    8    8       -0.0040631655
    7    7    8    3       -0.1866661564
    7    7    8    8        0.5951481555
    7    8    8    1        0.0094911745
    7    8    8    2        0.0074703378
    7    8    8    4        0.0088085900
    7    8    8    5        0.0004121843
    7    8    8    6        0.0056873976
    7    8    8    7        0.0303347274
    8    1    1    3       -0.0363782992
    8    1    1    8        0.0544903295
    8    2    1    3       -0.0170163791
    8    2    1    8        0.0264355499
    8    3    1    1       -0.5159058862
    8    3    1    2       -0.0189604973
    8    3    1    4        0.0033177852
    8    3    1    5        0.0035324732
    8    3    1    6        0.0058553924
    8    3    1    7        0.0048343834
    8    4    1    3       -0.0029578498
    8    4    1    8        0.0039625462
    8    5    1    3       -0.0034102814
    8    5    1    8        0.0046876300
    8    6    1    3       -0.0070629035
    8    6    1    8        0.0117549240
    8    7    1    3       -0.0057622627
    8    7    1    8        0.0094911745
    8    8    1    1        1.0517515989
    8    8    1    2        0.0242536041
    8    8    1    4       -0.0056893449
    8    8    1    5       -0.0059387809
    8    8    1    6       -0.0084140146
    8    8    1    7       -0.0068380946
    8    1    2    3       -0.0350462518
    8    1    2    8        0.0264355499
    8    2    2    3       -0.0499883222
    8    2    2    8        0.0467465778
    8    3    2    1       -0.0188847290
    8    3    2    2       -0.2121068467
    8    3    2    4        0.0025738863
    8    3    2    5       -0.0003999806
    8    3    2    6       -0.0082625628
    8    3    2    7       -0.0064376982
    8    4    2    3       -0.0027623018
    8    4    2    8        0.0034334929
    8    5    2    3       -0.0041393674
    8    5    2    8        0.0047719110
    8    6    2    3       -0.0268396669
    8    6    2    8        0.0095836117
    8    7    2    3       -0.0214768392
    8    7    2    8        0.0074703378
    8    8    2    1        0.0242536041
    8    8    2    2        0.6335211755
    8    8    2    4        0.0035949005
    8    8    2    5        0.0058461054
    8    8    2    6        0.0080521195
    8    8    2    7        0.0058574145
    8    1    3    1       -0.0360641350
    8    1    3    2       -0.0354082522
    8    1    3    4       -0.0070674343
    8    1    3    5       -0.0079311882
    8    1    3    6       -0.0097069620
    8    1    3    7       -0.0079316008
    8    2    3    1       -0.0189218717
    8    2    3    2       -0.0511213250
    8    2    3    4       -0.0058699988
    8    2    3    5       -0.0074195203
    8    2    3    6       -0.0128644928
    8    2    3    7       -0.0103288635
    8    3    3    3       -0.2047161489
    8    3    3    8        0.1614317302
    8    4    3    1       -0.0030490304
    8    4    3    2       -0.0030388282
    8    4    3    4       -0.0080964266
    8    4    3    5       -0.0015198924
    8    4    3    6       -0.0031095590
    8    4    3    7       -0.0176210261
    8    5    3    1       -0.0035557702
    8    5    3    2       -0.0044332468
    8    5    3    4       -0.0015751506
    8    5    3    5       -0.0074847589
    8    5    3    6       -0.0177031169
    8    5    3    7       -0.0006243151
    8    6    3    1       -0.0069596637
    8    6    3    2       -0.0272939363
    8    6    3    4       -0.0073277358
    8    6    3    5       -0.0292310479
    8    6    3    6       -0.0187763857
    8    6    3    7       -0.0023421259
    8    7    3    1       -0.0056664201
    8    7    3    2       -0.0218936524
    8    7    3    4       -0.0286191339
    8    7    3    5       -0.0032367576
    8    7    3    6       -0.0023370450
    8    7    3    7       -0.0170445877
    8    8    3    3        0.6426828343
    8    8    3    8       -0.1902951377
    8    1    4    3       -0.0070381196
    8    1    4    8        0.0039625462
    8    2    4    3       -0.0052793542
    8    2    4    8        0.0034334929
    8    3    4    1        0.0031756514
    8    3    4    2        0.0024519551
    8    3    4    4       -0.1582065589
    8    3    4    5       -0.0043948427
    8    3    4    6       -0.0102631142
    8    3    4    7       -0.1212132364
    8    4    4    3       -0.0075605893
    8    4    4    8        0.0157833149
    8    5    4    3       -0.0015086067
    8    5    4    8        0.0012525252
    8    6    4    3       -0.0074726437
    8    6    4    8        0.0016080483
    8    7    4    3       -0.0280955553
    8    7    4    8        0.0088085900
    8    8    4    1       -0.0056893449
    8    8    4    2        0.0035949005
    8    8    4    4        0.5714997760
    8    8    4    5        0.0066744495
    8    8    4    6        0.0130446622
    8    8    4    7        0.1559254347
    8    1    5    3       -0.0079007524
    8    1    5    8        0.0046876300
    8    2    5    3       -0.0067626622
    8    2    5    8        0.0047719110
    8    3    5    1        0.0033670737
    8    3    5    2       -0.0004228115
    8    3    5    4       -0.0044137129
    8    3    5    5       -0.1497605088
    8    3    5    6       -0.1201548730
    8    3    5    7        0.0081660297
    8    4    5    3       -0.0014743950
    8    4    5    8        0.0012525252
    8    5    5    3       -0.0069750359
    8    5    5    8        0.0160414134
    8    6    5    3       -0.0286236793
    8    6    5    8        0.0086377633
    8    7    5    3       -0.0034534557
    8    7    5    8        0.0004121843
    8    8    5    1       -0.0059387809
    8    8    5    2        0.0058461054
    8    8    5    4        0.0066744495
    8    8    5    5        0.5576489685
    8    8    5    6        0.1575121110
    8    8    5    7       -0.0107334714
    8    1    6    3       -0.0094291068
    8    1    6    8        0.0117549240
    8    2    6    3       -0.0137147792
    8    2    6    8        0.0095836117
    8    3    6    1        0.0052620133
    8    3    6    2       -0.0104246575
    8    3    6    4       -0.0098622736
    8    3    6    5       -0.1183790067
    8    3    6    6       -0.1807624577
    8    3    6    7        0.0038037672
    8    4    6    3       -0.0031740114
    8    4    6    8        0.0016080483
    8    5    6    3       -0.0190759311
    8    5    6    8        0.0086377633
    8    6    6    3       -0.0190249276
    8    6    6    8        0.0316567688
    8    7    6    3       -0.0024469157
    8    7    6    8        0.0056873976
    8    8    6    1       -0.0084140146
    8    8    6    2        0.0080521195
    8    8    6    4        0.0130446622
    8    8    6    5        0.1575121110
    8    8    6    6        0.5843659721
    8    8    6    7       -0.0040631655
    8    1    7    3       -0.0076960188
    8    1    7    8        0.0094911745
    8    2    7    3       -0.0111701346
    8    2    7    8        0.0074703378
    8    3    7    1        0.0044040634
    8    3    7    2       -0.0084736724
    8    3    7    4       -0.1188413724
    8    3    7    5        0.0082179585
    8    3    7    6        0.0038635456
    8    3    7    7       -0.1866661564
    8    4    7    3       -0.0190510775
    8    4    7    8        0.0088085900
    8    5    7    3       -0.0005497578
    8    5    7    8        0.0004121843
    8    6    7    3       -0.0024261380
    8    6    7    8        0.0056873976
    8    7    7    3       -0.0172211338
    8    7    7    8        0.0303347274
    8    8    7    1       -0.0068380946
    8    8    7    2        0.0058574145
    8    8    7    4        0.1559254347
    8    8    7    5       -0.0107334714
    8    8    7    6       -0.0040631655
    8    8    7    7        0.5951481555
    8    1    8    1        0.0534311769
    8    1    8    2        0.0263335047
    8    1    8    4        0.0036511775
    8    1    8    5        0.0043658678
    8    1    8    6        0.0115508825
    8    1    8    7        0.0093194233
    8    2    8    1        0.0263335047
    8    2    8    2        0.0523639570
    8    2    8    4        0.0037626078
    8    2    8    5        0.0052399506
    8    2    8    6        0.0102421304
    8    2    8    7        0.0080087478
    8    3    8    3        0.1609939466
    8    3    8    8       -0.1902951377
    8    4    8    1        0.0036511775
    8    4    8    2        0.0037626078
    8    4    8    4        0.0147268244
    8    4    8    5        0.0012998620
    8    4    8    6        0.0015506214
    8    4    8    7        0.0089952157
    8    5    8    1        0.0043658678
    8    5    8    2        0.0052399506
    8    5    8    4        0.0012998620
    8    5    8    5        0.0154581720
    8    5    8    6        0.0088595725
    8    5    8    7        0.0003501439
    8    6    8    1        0.0115508825
    8    6    8    2        0.0102421304
    8    6    8    4        0.0015506214
    8    6    8    5        0.0088595725
    8    6    8    6        0.0316696398
    8    6    8    7        0.0056704883
    8    7    8    1        0.0093194233
    8    7    8    2        0.0080087478
    8    7    8    4        0.0089952157
    8    7    8    5        0.0003501439
    8    7    8    6        0.0056704883
    8    7    8    7        0.0303494699
    8    8    8    3       -0.1902951377
    8    8    8    8        0.6085287443
 end_two_electron_integrals

 Parallel integral file used       3 records with       0 large values


 Task  times  cpu:       50.9s     wall:       51.2s


                                NWChem Input Module
                                -------------------


 Summary of allocated global arrays
-----------------------------------
  No active global arrays


MA_summarize_allocated_blocks: starting scan ...
MA_summarize_allocated_blocks: scan completed: 0 heap blocks, 0 stack blocks
MA usage statistics:

	allocation statistics:
					      heap	     stack
					      ----	     -----
	current number of blocks	         0	         0
	maximum number of blocks	        18	        42
	current total bytes		         0	         0
	maximum total bytes		   5323032	 716782712
	maximum total K-bytes		      5324	    716783
	maximum total M-bytes		         6	       717


                                     CITATION
                                     --------
                Please cite the following reference when publishing
                           results obtained with NWChem:

          E. Apra, E. J. Bylaska, W. A. de Jong, N. Govind, K. Kowalski,
       T. P. Straatsma, M. Valiev, H. J. J. van Dam, Y. Alexeev, J. Anchell,
       V. Anisimov, F. W. Aquino, R. Atta-Fynn, J. Autschbach, N. P. Bauman,
     J. C. Becca, D. E. Bernholdt, K. Bhaskaran-Nair, S. Bogatko, P. Borowski,
         J. Boschen, J. Brabec, A. Bruner, E. Cauet, Y. Chen, G. N. Chuev,
      C. J. Cramer, J. Daily, M. J. O. Deegan, T. H. Dunning Jr., M. Dupuis,
   K. G. Dyall, G. I. Fann, S. A. Fischer, A. Fonari, H. Fruchtl, L. Gagliardi,
      J. Garza, N. Gawande, S. Ghosh, K. Glaesemann, A. W. Gotz, J. Hammond,
       V. Helms, E. D. Hermes, K. Hirao, S. Hirata, M. Jacquelin, L. Jensen,
   B. G. Johnson, H. Jonsson, R. A. Kendall, M. Klemm, R. Kobayashi, V. Konkov,
      S. Krishnamoorthy, M. Krishnan, Z. Lin, R. D. Lins, R. J. Littlefield,
      A. J. Logsdail, K. Lopata, W. Ma, A. V. Marenich, J. Martin del Campo,
   D. Mejia-Rodriguez, J. E. Moore, J. M. Mullin, T. Nakajima, D. R. Nascimento,
    J. A. Nichols, P. J. Nichols, J. Nieplocha, A. Otero-de-la-Roza, B. Palmer,
    A. Panyala, T. Pirojsirikul, B. Peng, R. Peverati, J. Pittner, L. Pollack,
   R. M. Richard, P. Sadayappan, G. C. Schatz, W. A. Shelton, D. W. Silverstein,
   D. M. A. Smith, T. A. Soares, D. Song, M. Swart, H. L. Taylor, G. S. Thomas,
            V. Tipparaju, D. G. Truhlar, K. Tsemekhman, T. Van Voorhis,
      A. Vazquez-Mayagoitia, P. Verma, O. Villa, A. Vishnu, K. D. Vogiatzis,
        D. Wang, J. H. Weare, M. J. Williamson, T. L. Windus, K. Wolinski,
        A. T. Wong, Q. Wu, C. Yang, Q. Yu, M. Zacharias, Z. Zhang, Y. Zhao,
                                and R. J. Harrison
                        "NWChem: Past, present, and future
                         J. Chem. Phys. 152, 184102 (2020)
                               doi:10.1063/5.0004997

                                      AUTHORS
                                      -------
  E. Apra, E. J. Bylaska, N. Govind, K. Kowalski, M. Valiev, D. Mejia-Rodriguez,
       A. Kunitsa, N. P. Bauman, A. Panyala, W. A. de Jong, T. P. Straatsma,
        H. J. J. van Dam, D. Wang, T. L. Windus, J. Hammond, J. Autschbach,
    K. Bhaskaran-Nair, J. Brabec, K. Lopata, S. A. Fischer, S. Krishnamoorthy,
     M. Jacquelin, W. Ma, M. Klemm, O. Villa, Y. Chen, V. Anisimov, F. Aquino,
    S. Hirata, M. T. Hackler, Eric Hermes, L. Jensen, J. E. Moore, J. C. Becca,
      V. Konjkov, T. Risthaus, M. Malagoli, A. Marenich, A. Otero-de-la-Roza,
        J. Mullin, P. Nichols, R. Peverati, J. Pittner, Y. Zhao, P.-D. Fan,
        A. Fonari, M. J. Williamson, R. J. Harrison, J. R. Rehr, M. Dupuis,
     D. Silverstein, D. M. A. Smith, J. Nieplocha, V. Tipparaju, M. Krishnan,
     B. E. Van Kuiken, A. Vazquez-Mayagoitia, M. Swart, Q. Wu, T. Van Voorhis,
     A. A. Auer, M. Nooijen, L. D. Crosby, E. Brown, G. Cisneros, G. I. Fann,
   H. Fruchtl, J. Garza, K. Hirao, R. A. Kendall, J. A. Nichols, K. Tsemekhman,
    K. Wolinski, J. Anchell, D. E. Bernholdt, P. Borowski, T. Clark, D. Clerc,
   H. Dachsel, M. J. O. Deegan, K. Dyall, D. Elwood, E. Glendening, M. Gutowski,
   A. C. Hess, J. Jaffe, B. G. Johnson, J. Ju, R. Kobayashi, R. Kutteh, Z. Lin,
   R. Littlefield, X. Long, B. Meng, T. Nakajima, S. Niu, L. Pollack, M. Rosing,
   K. Glaesemann, G. Sandrone, M. Stave, H. Taylor, G. Thomas, J. H. van Lenthe,
                               A. T. Wong, Z. Zhang.

 Total times  cpu:       53.6s     wall:       55.9s
