 argument  1 = input.nw
  NWChem w/ OpenMP: maximum threads =    1



============================== echo of input deck ==============================
 echo
 start H2O
 title "H2O"

 memory total 24 gb

 geometry units bohr
 symmetry c1
        O  0.00000000  0.00000000  0.00000000
        H  0.00000000  1.806581  0.00000000
        H  1.72558000 -0.64860000  0.00000000
 end

 basis spherical
   * library 6-311++G**
 end

 mcscf
   active  8
   actelec 10
   multiplicity 1
   maxiter 40
   vectors input h2o.mos
   vectors output h2o.mos
 end

 task mcscf

 scf
   vectors input h2o.mos
   vectors output h2o-trash.mos
   noscf
 end

 tce
   2eorb
   2emet 13
   ccsd
   maxiter 300
 end

# set tce:print_integrals T
# set tce:qorb 8
# set tce:qela 5
# set tce:qelb 5

 set tce:qducc T
 set tce:nactv 3
 set tce:nonhf T
 set tce:ducc_model 6

 set tce:printtol 0.02

 task tce
================================================================================


                                         
                                         


             Northwest Computational Chemistry Package (NWChem) 7.0.1
             --------------------------------------------------------


                    Environmental Molecular Sciences Laboratory
                       Pacific Northwest National Laboratory
                                Richland, WA 99352

                              Copyright (c) 1994-2020
                       Pacific Northwest National Laboratory
                            Battelle Memorial Institute

             NWChem is an open-source computational chemistry package
                        distributed under the terms of the
                      Educational Community License (ECL) 2.0
             A copy of the license is included with this distribution
                              in the LICENSE.TXT file

                                  ACKNOWLEDGMENT
                                  --------------

            This software and its documentation were developed at the
            EMSL at Pacific Northwest National Laboratory, a multiprogram
            national laboratory, operated for the U.S. Department of Energy
            by Battelle under Contract Number DE-AC05-76RL01830. Support
            for this work was provided by the Department of Energy Office
            of Biological and Environmental Research, Office of Basic
            Energy Sciences, and the Office of Advanced Scientific Computing.


           Job information
           ---------------

    hostname        = WE46210
    program         = /home/baum612/code/nwchem/bin/LINUX64/nwchem
    date            = Thu Sep  5 13:18:15 2024

    compiled        = Wed_Sep_04_02:00:17_2024
    source          = /home/baum612/code/nwchem
    nwchem branch   = 7.0.0
    nwchem revision = nwchem_on_git-4191-g39d87d64de
    ga revision     = 5.8.1
    use scalapack   = F
    input           = input.nw
    prefix          = H2O.
    data base       = ./H2O.db
    status          = startup
    nproc           =        1
    time left       =     -1s



           Memory information
           ------------------

    heap     =  805306366 doubles =   6144.0 Mbytes
    stack    =  805306363 doubles =   6144.0 Mbytes
    global   = 1610612736 doubles =  12288.0 Mbytes (distinct from heap & stack)
    total    = 3221225465 doubles =  24576.0 Mbytes
    verify   = yes
    hardfail = no 


           Directory information
           ---------------------

  0 permanent = .
  0 scratch   = .




                                NWChem Input Module
                                -------------------


                                        H2O
                                        ---
 Turning off AUTOSYM since
 SYMMETRY directive was detected!


          ------
          auto-z
          ------
  no constraints, skipping    0.0000000000000000     
  no constraints, skipping    0.0000000000000000     


                             Geometry "geometry" -> ""
                             -------------------------

 Output coordinates in a.u. (scale by  1.000000000 to convert to a.u.)

  No.       Tag          Charge          X              Y              Z
 ---- ---------------- ---------- -------------- -------------- --------------
    1 O                    8.0000    -0.17255800    -0.11579810     0.00000000
    2 H                    1.0000    -0.17255800     1.69078290     0.00000000
    3 H                    1.0000     1.55302200    -0.76439810     0.00000000

      Atomic Mass 
      ----------- 

      O                 15.994910
      H                  1.007825


 Effective nuclear repulsion energy (a.u.)       9.1011739597

            Nuclear Dipole moment (a.u.) 
            ----------------------------
        X                 Y               Z
 ---------------- ---------------- ----------------
    -0.0000000000     0.0000000000     0.0000000000



                                Z-matrix (autoz)
                                -------- 

 Units are Angstrom for bonds and degrees for angles

      Type          Name      I     J     K     L     M      Value
      ----------- --------  ----- ----- ----- ----- ----- ----------
    1 Stretch                  1     2                       0.95600
    2 Stretch                  1     3                       0.97551
    3 Bend                     2     1     3               110.59992


            XYZ format geometry
            -------------------
     3
 geometry
 O                    -0.09131377    -0.06127772     0.00000000
 H                    -0.09131377     0.89472384     0.00000000
 H                     0.82182391    -0.40450208     0.00000000

 ==============================================================================
                                internuclear distances
 ------------------------------------------------------------------------------
       center one      |      center two      | atomic units |       a.u.
 ------------------------------------------------------------------------------
    2 H                |   1 O                |     1.80658  |     1.80658
    3 H                |   1 O                |     1.84345  |     1.84345
 ------------------------------------------------------------------------------
                         number of included internuclear distances:          2
 ==============================================================================



 ==============================================================================
                                 internuclear angles
 ------------------------------------------------------------------------------
        center 1       |       center 2       |       center 3       |  degrees
 ------------------------------------------------------------------------------
    2 H                |   1 O                |   3 H                |   110.60
 ------------------------------------------------------------------------------
                            number of included internuclear angles:          1
 ==============================================================================





 Summary of "ao basis" -> "" (spherical)
 ------------------------------------------------------------------------------
       Tag                 Description            Shells   Functions and Types
 ---------------- ------------------------------  ------  ---------------------
 *                         6-311++G**                 on all atoms 


                      Basis "ao basis" -> "ao basis" (spherical)
                      -----
  O (Oxygen)
  ----------
            Exponent  Coefficients 
       -------------- ---------------------------------------------------------
  1 S  8.58850000E+03  0.001895
  1 S  1.29723000E+03  0.014386
  1 S  2.99296000E+02  0.070732
  1 S  8.73771000E+01  0.240001
  1 S  2.56789000E+01  0.594797
  1 S  3.74004000E+00  0.280802

  2 S  4.21175000E+01  0.113889
  2 S  9.62837000E+00  0.920811
  2 S  2.85332000E+00 -0.003274

  3 P  4.21175000E+01  0.036511
  3 P  9.62837000E+00  0.237153
  3 P  2.85332000E+00  0.819702

  4 S  9.05661000E-01  1.000000

  5 P  9.05661000E-01  1.000000

  6 S  2.55611000E-01  1.000000

  7 P  2.55611000E-01  1.000000

  8 S  8.45000000E-02  1.000000

  9 P  8.45000000E-02  1.000000

 10 D  1.29200000E+00  1.000000

  H (Hydrogen)
  ------------
            Exponent  Coefficients 
       -------------- ---------------------------------------------------------
  1 S  3.38650000E+01  0.025494
  1 S  5.09479000E+00  0.190373
  1 S  1.15879000E+00  0.852161

  2 S  3.25840000E-01  1.000000

  3 S  1.02741000E-01  1.000000

  4 S  3.60000000E-02  1.000000

  5 P  7.50000000E-01  1.000000



 Summary of "ao basis" -> "ao basis" (spherical)
 ------------------------------------------------------------------------------
       Tag                 Description            Shells   Functions and Types
 ---------------- ------------------------------  ------  ---------------------
 O                         6-311++G**               10       22   5s4p1d
 H                         6-311++G**                5        7   4s1p



                            NWChem Direct MCSCF Module
                            --------------------------


                                        H2O


     -----------------------------------
       Basis functions:             36
       Inactive shells:              0
       Active shells:                8
       Active electrons:            10
       Symmetry:                    a       
       Multiplicity:                 1
       Orbital rotations:          224
     -----------------------------------

     -----------------------------------
       E2 extrapolation:             F
       Conjugacy:                    T
       Micro CI relax:               T
       Canonical orbitals:           T
       Maximum iterations:          40
       Converge threshold:    1.00E-04
       Conjugacy resets:            20
       Initial levelshift:        0.10
     -----------------------------------

 Loading old vectors from job with title :

H2O


   input molecular orbitals = ./h2o.mos
  output molecular orbtials = ./h2o.mos

       No. of determinants:          3136


  Starting Orbital Energies
   -20.559738    -1.358221    -0.753910    -0.592133    -0.531912    -0.026326
    -0.024910    -0.016995     0.071025     0.087613     0.238360     0.277952
     0.316113     0.491166     0.500488     0.614722     0.993656     1.042304
     1.480048     1.514524     1.633364     1.733243     1.872460     2.253048
     2.347384     2.738262     2.855736     3.432797     3.538264     3.662566
     4.082933     4.212166     5.311228     5.778229     6.181546    51.568938

  Orbital Symmetry Irreps
a    a    a    a    a    a    a    a    a    a    a    a    a    a    a   
a    a    a    a    a    a    a    a    a    a    a    a    a    a    a   
a    a    a    a    a    a   

 Integral file          = ./H2O.aoints.0
 Record size in doubles =  65536        No. of integs per rec  =  43688
 Max. records in memory =     10        Max. records in file   = 232473
 No. of bits per label  =      8        No. of bits per value  =     64


 #quartets = 2.216D+04 #integrals = 1.003D+05 #direct =  0.0% #cached =100.0%




          %%%%% MacroIteration   1 %%%%%


          Number of sigma calls:       14
                       o<<<<< (aa):             0.00
                       o<<<<< (bb):             0.00
                       o<<<<< (ab):             0.04
                       o<<<<< (total)           0.05
                       o<<<<< (aa) ff           0.00
                       o<<<<< (aa) gop          0.00
                       o<<<<< (aa) dot          0.00
                       o<<<<< (ab) str          0.00
                       o<<<<< (ab) gath         0.00
                       o<<<<< (ab) dotab        0.00
                       o<<<<< (ab) scat         0.00
                       o<<<<< (ab) sync         0.00
                       o<<<<< Density           0.01
                       o<<<<< Density one       0.00
                       o<<<<< Density two       0.00
                       o<<<<< Density ab        0.01
                       o<<<<< Spin adapt        0.39
                       o<<<<< Symm adapt        0.00

                       o<<<<< (ab) max sync:      0.00

           >>>| Valence CI:            -85.246128533831
           >>>| MCSCF energy:          -76.144954574100
           >>>| Gradient norm:          0.118703477D-01

                              ----- Line search ------

        step       energy         lsg     num-lsg   num-lsh   lsrat    time
      ------- ---------------- --------- --------- --------- ------- --------
       0.0000     -76.14495457 -1.23D-05  0.00D+00  0.00D+00 0.0D+00      0.7

          Number of sigma calls:       14
                       o<<<<< (aa):             0.00
                       o<<<<< (bb):             0.00
                       o<<<<< (ab):             0.05
                       o<<<<< (total)           0.06
                       o<<<<< (aa) ff           0.00
                       o<<<<< (aa) gop          0.00
                       o<<<<< (aa) dot          0.00
                       o<<<<< (ab) str          0.00
                       o<<<<< (ab) gath         0.00
                       o<<<<< (ab) dotab        0.00
                       o<<<<< (ab) scat         0.00
                       o<<<<< (ab) sync         0.00
                       o<<<<< Density           0.01
                       o<<<<< Density one       0.00
                       o<<<<< Density two       0.00
                       o<<<<< Density ab        0.01
                       o<<<<< Spin adapt        0.36
                       o<<<<< Symm adapt        0.00

                       o<<<<< (ab) max sync:      0.00
       1.0000     -76.14496088 -3.57D-07 -3.57D-07  1.19D-05 2.9D-02      1.2
     --- Orbitals canonicalized ---



          %%%%% MacroIteration   2 %%%%%


          Number of sigma calls:       11
                       o<<<<< (aa):             0.00
                       o<<<<< (bb):             0.00
                       o<<<<< (ab):             0.03
                       o<<<<< (total)           0.04
                       o<<<<< (aa) ff           0.00
                       o<<<<< (aa) gop          0.00
                       o<<<<< (aa) dot          0.00
                       o<<<<< (ab) str          0.00
                       o<<<<< (ab) gath         0.00
                       o<<<<< (ab) dotab        0.00
                       o<<<<< (ab) scat         0.00
                       o<<<<< (ab) sync         0.00
                       o<<<<< Density           0.00
                       o<<<<< Density one       0.00
                       o<<<<< Density two       0.00
                       o<<<<< Density ab        0.00
                       o<<<<< Spin adapt        0.26
                       o<<<<< Symm adapt        0.00

                       o<<<<< (ab) max sync:      0.00

           >>>| Valence CI:            -85.246134839926
           >>>| MCSCF energy:          -76.144960880196
           >>>| Gradient norm:          0.725083796D-03
     --- Warning:    1 Hessian diagonals < 0.05 ---
     --- Conjugacy reset ---

                              ----- Line search ------

        step       energy         lsg     num-lsg   num-lsh   lsrat    time
      ------- ---------------- --------- --------- --------- ------- --------
       0.0000     -76.14496088 -1.06D-07  0.00D+00  0.00D+00 0.0D+00      1.5

          Number of sigma calls:        9
                       o<<<<< (aa):             0.00
                       o<<<<< (bb):             0.00
                       o<<<<< (ab):             0.03
                       o<<<<< (total)           0.03
                       o<<<<< (aa) ff           0.00
                       o<<<<< (aa) gop          0.00
                       o<<<<< (aa) dot          0.00
                       o<<<<< (ab) str          0.00
                       o<<<<< (ab) gath         0.00
                       o<<<<< (ab) dotab        0.00
                       o<<<<< (ab) scat         0.00
                       o<<<<< (ab) sync         0.00
                       o<<<<< Density           0.01
                       o<<<<< Density one       0.00
                       o<<<<< Density two       0.00
                       o<<<<< Density ab        0.01
                       o<<<<< Spin adapt        0.17
                       o<<<<< Symm adapt        0.00

                       o<<<<< (ab) max sync:      0.00
       1.0000     -76.14496095 -3.66D-08 -3.66D-08  6.89D-08 3.5D-01      1.8

          Number of sigma calls:        9
                       o<<<<< (aa):             0.00
                       o<<<<< (bb):             0.00
                       o<<<<< (ab):             0.03
                       o<<<<< (total)           0.03
                       o<<<<< (aa) ff           0.00
                       o<<<<< (aa) gop          0.00
                       o<<<<< (aa) dot          0.00
                       o<<<<< (ab) str          0.00
                       o<<<<< (ab) gath         0.00
                       o<<<<< (ab) dotab        0.00
                       o<<<<< (ab) scat         0.00
                       o<<<<< (ab) sync         0.00
                       o<<<<< Density           0.01
                       o<<<<< Density one       0.01
                       o<<<<< Density two       0.00
                       o<<<<< Density ab        0.01
                       o<<<<< Spin adapt        0.15
                       o<<<<< Symm adapt        0.00

                       o<<<<< (ab) max sync:      0.00
       1.5314     -76.14496096 -4.00D-11 -3.78D-11  6.89D-08 3.8D-04      2.0



          %%%%% MacroIteration   3 %%%%%


          Number of sigma calls:        1
                       o<<<<< (aa):             0.00
                       o<<<<< (bb):             0.00
                       o<<<<< (ab):             0.00
                       o<<<<< (total)           0.01
                       o<<<<< (aa) ff           0.00
                       o<<<<< (aa) gop          0.00
                       o<<<<< (aa) dot          0.00
                       o<<<<< (ab) str          0.00
                       o<<<<< (ab) gath         0.00
                       o<<<<< (ab) dotab        0.00
                       o<<<<< (ab) scat         0.00
                       o<<<<< (ab) sync         0.00
                       o<<<<< Density           0.01
                       o<<<<< Density one       0.00
                       o<<<<< Density two       0.00
                       o<<<<< Density ab        0.01
                       o<<<<< Spin adapt        0.00
                       o<<<<< Symm adapt        0.00

                       o<<<<< (ab) max sync:      0.00

           >>>| Valence CI:            -85.246134920776
           >>>| MCSCF energy:          -76.144960961045
           >>>| Gradient norm:          0.130726345D-03
     --- Warning:    1 Hessian diagonals < 0.05 ---

                              ----- Line search ------

        step       energy         lsg     num-lsg   num-lsh   lsrat    time
      ------- ---------------- --------- --------- --------- ------- --------
       0.0000     -76.14496096 -5.51D-09  0.00D+00  0.00D+00 0.0D+00      2.0

          Number of sigma calls:        8
                       o<<<<< (aa):             0.00
                       o<<<<< (bb):             0.00
                       o<<<<< (ab):             0.02
                       o<<<<< (total)           0.03
                       o<<<<< (aa) ff           0.00
                       o<<<<< (aa) gop          0.00
                       o<<<<< (aa) dot          0.00
                       o<<<<< (ab) str          0.00
                       o<<<<< (ab) gath         0.00
                       o<<<<< (ab) dotab        0.00
                       o<<<<< (ab) scat         0.00
                       o<<<<< (ab) sync         0.00
                       o<<<<< Density           0.01
                       o<<<<< Density one       0.00
                       o<<<<< Density two       0.00
                       o<<<<< Density ab        0.01
                       o<<<<< Spin adapt        0.18
                       o<<<<< Symm adapt        0.00

                       o<<<<< (ab) max sync:      0.00
       1.0000     -76.14496097 -2.59D-09 -2.59D-09  2.92D-09 4.7D-01      2.3

          Number of sigma calls:        8
                       o<<<<< (aa):             0.00
                       o<<<<< (bb):             0.00
                       o<<<<< (ab):             0.03
                       o<<<<< (total)           0.04
                       o<<<<< (aa) ff           0.00
                       o<<<<< (aa) gop          0.00
                       o<<<<< (aa) dot          0.00
                       o<<<<< (ab) str          0.00
                       o<<<<< (ab) gath         0.00
                       o<<<<< (ab) dotab        0.00
                       o<<<<< (ab) scat         0.00
                       o<<<<< (ab) sync         0.00
                       o<<<<< Density           0.00
                       o<<<<< Density one       0.00
                       o<<<<< Density two       0.00
                       o<<<<< Density ab        0.00
                       o<<<<< Spin adapt        0.17
                       o<<<<< Symm adapt        0.00

                       o<<<<< (ab) max sync:      0.00
       1.8871     -76.14496097 -1.87D-13 -1.86D-14  2.92D-09 3.4D-05      2.5



          %%%%% MacroIteration   4 %%%%%


          Number of sigma calls:        1
                       o<<<<< (aa):             0.00
                       o<<<<< (bb):             0.00
                       o<<<<< (ab):             0.00
                       o<<<<< (total)           0.00
                       o<<<<< (aa) ff           0.00
                       o<<<<< (aa) gop          0.00
                       o<<<<< (aa) dot          0.00
                       o<<<<< (ab) str          0.00
                       o<<<<< (ab) gath         0.00
                       o<<<<< (ab) dotab        0.00
                       o<<<<< (ab) scat         0.00
                       o<<<<< (ab) sync         0.00
                       o<<<<< Density           0.01
                       o<<<<< Density one       0.00
                       o<<<<< Density two       0.00
                       o<<<<< Density ab        0.01
                       o<<<<< Spin adapt        0.00
                       o<<<<< Symm adapt        0.00

                       o<<<<< (ab) max sync:      0.00

           >>>| Valence CI:            -85.246134925977
           >>>| MCSCF energy:          -76.144960966247
           >>>| Gradient norm:          0.905552588D-04




     ==============================
            MCSCF Converged
     ==============================



          Canonical Eigenvalues

              1      
    1  -20.5593
    2   -1.3595
    3   -0.7552
    4   -0.5925
    5   -0.5321
    6   -0.0263
    7   -0.0248
    8   -0.0170
    9    0.0710
   10    0.0876
   11    0.2385
   12    0.2779
   13    0.3160
   14    0.4913
   15    0.5008
   16    0.6140
   17    0.9922
   18    1.0414
   19    1.4805
   20    1.5138
   21    1.6325
   22    1.7338
   23    1.8749
   24    2.2559
   25    2.3522
   26    2.7366
   27    2.8547
   28    3.4344
   29    3.5413
   30    3.6660
   31    4.0843
   32    4.2143
   33    5.3107
   34    5.7808
   35    6.1896
   36   51.5716


          Converged CI vector

   Index           Coefficient          Config. Occupation
         1          0.97528959          1  2  3  4  5  1  2  3  4  5
        22         -0.07276546          1  2  3  4  5  1  2  3  4  8
         3         -0.04530616          1  2  3  4  5  1  2  3  5  6
        27          0.02265008          1  2  3  4  5  1  2  3  6  8
         9         -0.04163600          1  2  3  4  5  1  2  4  5  7
        38          0.02598107          1  2  3  4  5  1  2  4  7  8
      1177         -0.07276546          1  2  3  4  8  1  2  3  4  5
      1198         -0.05457593          1  2  3  4  8  1  2  3  4  8
      1179         -0.02800542          1  2  3  4  8  1  2  3  5  6
      1185         -0.03543462          1  2  3  4  8  1  2  4  5  7
      1181          0.02157502          1  2  3  4  8  1  3  4  5  6
       113         -0.04530616          1  2  3  5  6  1  2  3  4  5
       134         -0.02800542          1  2  3  5  6  1  2  3  4  8
       115         -0.04080526          1  2  3  5  6  1  2  3  5  6
       121         -0.03360143          1  2  3  5  6  1  2  4  5  7
       117          0.02649545          1  2  3  5  6  1  3  4  5  6
       400         -0.02046298          1  2  3  5  7  1  2  3  5  7
      1457          0.02265008          1  2  3  6  8  1  2  3  4  5
       172         -0.02764207          1  2  4  5  6  1  2  4  5  6
       449         -0.04163600          1  2  4  5  7  1  2  3  4  5
       470         -0.03543462          1  2  4  5  7  1  2  3  4  8
       451         -0.03360143          1  2  4  5  7  1  2  3  5  6
       457         -0.05932302          1  2  4  5  7  1  2  4  5  7
       453          0.02387899          1  2  4  5  7  1  3  4  5  6
      2073          0.02598107          1  2  4  7  8  1  2  3  4  5
       246          0.02157502          1  3  4  5  6  1  2  3  4  8
       227          0.02649545          1  3  4  5  6  1  2  3  5  6
       233          0.02387899          1  3  4  5  6  1  2  4  5  7
       229         -0.02667463          1  3  4  5  6  1  3  4  5  6

          Number of sigma calls:        1
                       o<<<<< (aa):             0.00
                       o<<<<< (bb):             0.00
                       o<<<<< (ab):             0.00
                       o<<<<< (total)           0.00
                       o<<<<< (aa) ff           0.00
                       o<<<<< (aa) gop          0.00
                       o<<<<< (aa) dot          0.00
                       o<<<<< (ab) str          0.00
                       o<<<<< (ab) gath         0.00
                       o<<<<< (ab) dotab        0.00
                       o<<<<< (ab) scat         0.00
                       o<<<<< (ab) sync         0.00
                       o<<<<< Density           0.01
                       o<<<<< Density one       0.00
                       o<<<<< Density two       0.00
                       o<<<<< Density ab        0.01
                       o<<<<< Spin adapt        0.00
                       o<<<<< Symm adapt        0.00

                       o<<<<< (ab) max sync:      0.00



          Natural orbital occupation numbers

              1      
    1    2.0000
    2    1.9989
    3    1.9809
    4    1.9775
    5    1.9765
    6    0.0244
    7    0.0231
    8    0.0188


          Number of sigma calls:       14
                       o<<<<< (aa):             0.00
                       o<<<<< (bb):             0.00
                       o<<<<< (ab):             0.04
                       o<<<<< (total)           0.05
                       o<<<<< (aa) ff           0.00
                       o<<<<< (aa) gop          0.00
                       o<<<<< (aa) dot          0.00
                       o<<<<< (ab) str          0.00
                       o<<<<< (ab) gath         0.00
                       o<<<<< (ab) dotab        0.00
                       o<<<<< (ab) scat         0.00
                       o<<<<< (ab) sync         0.00
                       o<<<<< Density           0.01
                       o<<<<< Density one       0.00
                       o<<<<< Density two       0.00
                       o<<<<< Density ab        0.01
                       o<<<<< Spin adapt        0.34
                       o<<<<< Symm adapt        0.00

                       o<<<<< (ab) max sync:      0.00


       Final MCSCF results 
       ------------------- 

       Total MCSCF energy =    -76.144960966247
            Gradient norm =      9.1D-05

    CPU time for solution =      3.0s
   Wall time for solution =      5.4s



                        Analysis of MCSCF natural orbitals
                        ----------------------------------

 Vector    1  Occ=1.999990D+00  E=-2.055932D+01  Symmetry=a
              MO Center= -9.1D-02, -6.1D-02, -4.2D-09, r^2= 1.8D-02
   Bfn.  Coefficient  Atom+Function         Bfn.  Coefficient  Atom+Function  
  ----- ------------  ---------------      ----- ------------  ---------------
     1      0.560096  1 O  s                  2      0.488683  1 O  s          

 Vector    2  Occ=1.998931D+00  E=-1.359462D+00  Symmetry=a
              MO Center= -3.0D-01, -2.1D-01, -6.7D-06, r^2= 4.2D-01
   Bfn.  Coefficient  Atom+Function         Bfn.  Coefficient  Atom+Function  
  ----- ------------  ---------------      ----- ------------  ---------------
     6      0.553699  1 O  s                 10      0.482278  1 O  s          

 Vector    3  Occ=1.980905D+00  E=-7.552227D-01  Symmetry=a
              MO Center= -7.3D-02, -4.8D-02,  6.5D-06, r^2= 7.1D-01
   Bfn.  Coefficient  Atom+Function         Bfn.  Coefficient  Atom+Function  
  ----- ------------  ---------------      ----- ------------  ---------------
     9      0.435766  1 O  pz                13      0.406494  1 O  pz         
     5      0.288344  1 O  pz         

 Vector    4  Occ=1.977510D+00  E=-5.925031D-01  Symmetry=a
              MO Center= -3.4D-02,  3.7D-01,  1.9D-07, r^2= 5.9D-01
   Bfn.  Coefficient  Atom+Function         Bfn.  Coefficient  Atom+Function  
  ----- ------------  ---------------      ----- ------------  ---------------
     8      0.339063  1 O  py                24      0.268864  2 H  s          
     4      0.225005  1 O  py                12      0.216585  1 O  py         
    23      0.190961  2 H  s          

 Vector    5  Occ=1.976482D+00  E=-5.321069D-01  Symmetry=a
              MO Center=  3.2D-01, -1.8D-01,  1.5D-07, r^2= 6.2D-01
   Bfn.  Coefficient  Atom+Function         Bfn.  Coefficient  Atom+Function  
  ----- ------------  ---------------      ----- ------------  ---------------
     7      0.337561  1 O  px                31      0.277066  3 H  s          
     3      0.223357  1 O  px                11      0.223487  1 O  px         
    30      0.191315  3 H  s          

 Vector    6  Occ=2.435260D-02  E=-2.626382D-02  Symmetry=a
              MO Center=  4.9D-01, -1.3D-01,  1.2D-06, r^2= 7.1D-01
   Bfn.  Coefficient  Atom+Function         Bfn.  Coefficient  Atom+Function  
  ----- ------------  ---------------      ----- ------------  ---------------
     6      0.527847  1 O  s                 31     -0.508116  3 H  s          
     7      0.498129  1 O  px                 3      0.420484  1 O  px         
    30     -0.273368  3 H  s                 11     -0.168600  1 O  px         

 Vector    7  Occ=2.305359D-02  E=-2.476156D-02  Symmetry=a
              MO Center= -3.3D-02,  4.4D-01,  5.2D-07, r^2= 7.5D-01
   Bfn.  Coefficient  Atom+Function         Bfn.  Coefficient  Atom+Function  
  ----- ------------  ---------------      ----- ------------  ---------------
     8      0.547864  1 O  py                24     -0.548857  2 H  s          
     4      0.446472  1 O  py                23     -0.283126  2 H  s          
     6      0.273882  1 O  s                 31      0.221093  3 H  s          

 Vector    8  Occ=1.877612D-02  E=-1.699133D-02  Symmetry=a
              MO Center= -5.5D-02, -3.6D-02,  7.8D-06, r^2= 1.4D+00
   Bfn.  Coefficient  Atom+Function         Bfn.  Coefficient  Atom+Function  
  ----- ------------  ---------------      ----- ------------  ---------------
    13      0.658467  1 O  pz                 5     -0.517087  1 O  pz         
     9     -0.457055  1 O  pz                17      0.265251  1 O  pz         

 Vector    9  Occ=0.000000D+00  E= 7.095641D-02  Symmetry=a
              MO Center=  5.2D-01,  3.4D-01, -5.3D-06, r^2= 1.1D+01
   Bfn.  Coefficient  Atom+Function         Bfn.  Coefficient  Atom+Function  
  ----- ------------  ---------------      ----- ------------  ---------------
    33      0.983502  3 H  s                 26      0.971948  2 H  s          
    14     -0.805331  1 O  s                 32     -0.331210  3 H  s          
    25     -0.310035  2 H  s                 10      0.248468  1 O  s          

 Vector   10  Occ=0.000000D+00  E= 8.761696D-02  Symmetry=a
              MO Center=  5.1D-01,  3.6D-01, -2.4D-09, r^2= 1.4D+01
   Bfn.  Coefficient  Atom+Function         Bfn.  Coefficient  Atom+Function  
  ----- ------------  ---------------      ----- ------------  ---------------
    26      2.669914  2 H  s                 33     -2.662785  3 H  s          
    32      0.440859  3 H  s                 25     -0.422113  2 H  s          
    16     -0.341219  1 O  py                15      0.229187  1 O  px         

 Vector   11  Occ=0.000000D+00  E= 2.384855D-01  Symmetry=a
              MO Center= -2.3D-01, -1.7D-01,  4.9D-06, r^2= 5.6D+00
   Bfn.  Coefficient  Atom+Function         Bfn.  Coefficient  Atom+Function  
  ----- ------------  ---------------      ----- ------------  ---------------
    14      3.694522  1 O  s                 25     -2.860813  2 H  s          
    32     -2.716399  3 H  s                 15      1.919661  1 O  px         
    16      1.376823  1 O  py                11     -0.347289  1 O  px         
    26      0.259887  2 H  s                 10      0.255115  1 O  s          
    33      0.240720  3 H  s                 12     -0.238515  1 O  py         

 Vector   12  Occ=0.000000D+00  E= 2.779408D-01  Symmetry=a
              MO Center= -4.4D-01, -3.0D-01,  1.6D-10, r^2= 5.8D+00
   Bfn.  Coefficient  Atom+Function         Bfn.  Coefficient  Atom+Function  
  ----- ------------  ---------------      ----- ------------  ---------------
    25      3.388026  2 H  s                 32     -3.302710  3 H  s          
    16     -2.891809  1 O  py                15      1.995943  1 O  px         
    26      0.779580  2 H  s                 33     -0.760297  3 H  s          
    12      0.307580  1 O  py                24     -0.264268  2 H  s          
    31      0.257072  3 H  s                 11     -0.216117  1 O  px         

 Vector   13  Occ=0.000000D+00  E= 3.160421D-01  Symmetry=a
              MO Center=  6.5D-02,  4.9D-02, -2.4D-05, r^2= 5.4D+00
   Bfn.  Coefficient  Atom+Function         Bfn.  Coefficient  Atom+Function  
  ----- ------------  ---------------      ----- ------------  ---------------
    14      8.274406  1 O  s                 25     -4.006886  2 H  s          
    32     -3.885836  3 H  s                 15      1.504578  1 O  px         
    10     -1.149334  1 O  s                 16      1.086918  1 O  py         
    26     -0.365243  2 H  s                 33     -0.305014  3 H  s          
    24      0.238313  2 H  s                 31      0.229076  3 H  s          

 Vector   14  Occ=0.000000D+00  E= 4.912970D-01  Symmetry=a
              MO Center=  7.4D-01,  1.1D-02, -4.1D-09, r^2= 6.2D+00
   Bfn.  Coefficient  Atom+Function         Bfn.  Coefficient  Atom+Function  
  ----- ------------  ---------------      ----- ------------  ---------------
    32      3.603466  3 H  s                 25     -2.815348  2 H  s          
    33     -1.735681  3 H  s                 26      1.518943  2 H  s          
    31     -1.191045  3 H  s                 24      0.870821  2 H  s          
    16      0.439704  1 O  py                15     -0.365642  1 O  px         
    14     -0.211226  1 O  s          

 Vector   15  Occ=0.000000D+00  E= 5.007684D-01  Symmetry=a
              MO Center=  3.2D-01,  7.2D-01, -1.0D-07, r^2= 5.4D+00
   Bfn.  Coefficient  Atom+Function         Bfn.  Coefficient  Atom+Function  
  ----- ------------  ---------------      ----- ------------  ---------------
    25      3.365901  2 H  s                 32      2.311040  3 H  s          
    14     -1.981863  1 O  s                 24     -1.234055  2 H  s          
    26     -0.914044  2 H  s                 31     -0.911994  3 H  s          
    33     -0.424245  3 H  s                 16     -0.321029  1 O  py         
    15     -0.275219  1 O  px                10     -0.270542  1 O  s          

 Vector   16  Occ=0.000000D+00  E= 6.140335D-01  Symmetry=a
              MO Center= -8.6D-02, -5.8D-02,  2.0D-05, r^2= 5.4D+00
   Bfn.  Coefficient  Atom+Function         Bfn.  Coefficient  Atom+Function  
  ----- ------------  ---------------      ----- ------------  ---------------
    17     -1.449771  1 O  pz                13      1.401887  1 O  pz         
     9     -0.424572  1 O  pz         

 Vector   17  Occ=0.000000D+00  E= 9.921743D-01  Symmetry=a
              MO Center=  4.4D-02, -3.3D-02,  3.8D-06, r^2= 2.5D+00
   Bfn.  Coefficient  Atom+Function         Bfn.  Coefficient  Atom+Function  
  ----- ------------  ---------------      ----- ------------  ---------------
    14      3.541154  1 O  s                 25     -2.417372  2 H  s          
    10     -2.269371  1 O  s                 32     -2.041543  3 H  s          
    24      1.941416  2 H  s                 11     -1.631759  1 O  px         
    31      1.577326  3 H  s                 12     -1.480077  1 O  py         
    15      1.284887  1 O  px                16      1.169200  1 O  py         

 Vector   18  Occ=0.000000D+00  E= 1.041398D+00  Symmetry=a
              MO Center= -3.1D-01, -1.5D-01, -2.3D-09, r^2= 2.7D+00
   Bfn.  Coefficient  Atom+Function         Bfn.  Coefficient  Atom+Function  
  ----- ------------  ---------------      ----- ------------  ---------------
    12      2.097406  1 O  py                11     -1.710609  1 O  px         
    16     -1.604823  1 O  py                31      1.604865  3 H  s          
    32     -1.588744  3 H  s                 15      1.309578  1 O  px         
    24     -1.308357  2 H  s                 25      1.205909  2 H  s          
    26      0.711592  2 H  s                 33     -0.705398  3 H  s          


 Wrote Lagrangian and 1- and 2-particle density matrices to ./H2O.mcpdm


     Multipole analysis of the density
     ---------------------------------

     L   x y z        total        nuclear
     -   - - -        -----        -------
     0   0 0 0     -0.000000     10.000000

     1   1 0 0      0.657844     -0.000000
     1   0 1 0      0.447576      0.000000
     1   0 0 1     -0.000001      0.000000

     2   2 0 0     -4.280306      2.679864
     2   1 1 0     -0.860748     -1.319030
     2   1 0 1      0.000001      0.000000
     2   0 2 0     -3.674540      3.550325
     2   0 1 1      0.000001      0.000000
     2   0 0 2     -5.799818      0.000000


  Mulliken analysis of the total density
  --------------------------------------

    Atom       Charge   Shell Charges
 -----------   ------   -------------------------------------------------------
    1 O    8     8.51   1.08  0.91  0.95  0.99  2.07  0.79  1.51 -0.01  0.19  0.01
    2 H    1     0.75   0.26  0.39  0.01  0.01  0.07
    3 H    1     0.75   0.26  0.40  0.02  0.01  0.07

    Mulliken analysis of the active space density
    ---------------------------------------------

    Atom       Charge   Shell Charges
 -----------   ------   -------------------------------------------------------
    1 O    8     8.51   1.08  0.91  0.95  0.99  2.07  0.79  1.51 -0.01  0.19  0.01
    2 H    1     0.75   0.26  0.39  0.01  0.01  0.07
    3 H    1     0.75   0.26  0.40  0.02  0.01  0.07

 Parallel integral file used       3 records with       0 large values


 Task  times  cpu:        3.0s     wall:        5.4s


                                NWChem Input Module
                                -------------------


                                 NWChem SCF Module
                                 -----------------


                                        H2O



  ao basis        = "ao basis"
  functions       =    36
  atoms           =     3
  closed shells   =     5
  open shells     =     0
  charge          =   0.00
  wavefunction    = RHF 
  input vectors   = ./h2o.mos
  output vectors  = ./h2o-trash.mos
  use symmetry    = F
  symmetry adapt  = F


 Summary of "ao basis" -> "ao basis" (spherical)
 ------------------------------------------------------------------------------
       Tag                 Description            Shells   Functions and Types
 ---------------- ------------------------------  ------  ---------------------
 O                         6-311++G**               10       22   5s4p1d
 H                         6-311++G**                5        7   4s1p



 Forming initial guess at       5.4s


 Loading old vectors from job with title :

H2O


 Starting SCF solution at       5.4s



 ----------------------------------------------
         Quadratically convergent ROHF

 Convergence threshold     :          1.000E-04
 Maximum no. of iterations :           30
 Final Fock-matrix accuracy:          1.000E-07
 ----------------------------------------------


 Integral file          = ./H2O.aoints.0
 Record size in doubles =  65536        No. of integs per rec  =  43688
 Max. records in memory =     10        Max. records in file   = 232479
 No. of bits per label  =      8        No. of bits per value  =     64


 #quartets = 2.216D+04 #integrals = 1.002D+05 #direct =  0.0% #cached =100.0%



       Final RHF  results 
       ------------------ 

         Total SCF energy =    -76.049960761476
      One-electron energy =   -122.820747898190
      Two-electron energy =     37.669613176982
 Nuclear repulsion energy =      9.101173959731

        Time for solution =      0.0s


             Final eigenvalues
             -----------------

              1      
    1  -20.5593
    2   -1.3595
    3   -0.7552
    4   -0.5925
    5   -0.5321
    6   -0.0263
    7   -0.0248
    8   -0.0170
    9    0.0710
   10    0.0876
   11    0.2385
   12    0.2779
   13    0.3160
   14    0.4913
   15    0.5008

                       ROHF Final Molecular Orbital Analysis
                       -------------------------------------

 Vector    2  Occ=2.000000D+00  E=-1.359462D+00
              MO Center= -3.0D-01, -2.1D-01, -6.7D-06, r^2= 4.2D-01
   Bfn.  Coefficient  Atom+Function         Bfn.  Coefficient  Atom+Function  
  ----- ------------  ---------------      ----- ------------  ---------------
     6      0.553699  1 O  s                 10      0.482278  1 O  s          

 Vector    3  Occ=2.000000D+00  E=-7.552227D-01
              MO Center= -7.3D-02, -4.8D-02,  6.5D-06, r^2= 7.1D-01
   Bfn.  Coefficient  Atom+Function         Bfn.  Coefficient  Atom+Function  
  ----- ------------  ---------------      ----- ------------  ---------------
     9      0.435766  1 O  pz                13      0.406494  1 O  pz         
     5      0.288344  1 O  pz         

 Vector    4  Occ=2.000000D+00  E=-5.925031D-01
              MO Center= -3.4D-02,  3.7D-01,  1.9D-07, r^2= 5.9D-01
   Bfn.  Coefficient  Atom+Function         Bfn.  Coefficient  Atom+Function  
  ----- ------------  ---------------      ----- ------------  ---------------
     8      0.339063  1 O  py                24      0.268864  2 H  s          
     4      0.225005  1 O  py                12      0.216585  1 O  py         
    23      0.190961  2 H  s          

 Vector    5  Occ=2.000000D+00  E=-5.321069D-01
              MO Center=  3.2D-01, -1.8D-01,  1.5D-07, r^2= 6.2D-01
   Bfn.  Coefficient  Atom+Function         Bfn.  Coefficient  Atom+Function  
  ----- ------------  ---------------      ----- ------------  ---------------
     7      0.337561  1 O  px                31      0.277066  3 H  s          
     3      0.223357  1 O  px                11      0.223487  1 O  px         
    30      0.191315  3 H  s          

 Vector    6  Occ=0.000000D+00  E=-2.626382D-02
              MO Center=  4.9D-01, -1.3D-01,  1.2D-06, r^2= 7.1D-01
   Bfn.  Coefficient  Atom+Function         Bfn.  Coefficient  Atom+Function  
  ----- ------------  ---------------      ----- ------------  ---------------
     6      0.527847  1 O  s                 31     -0.508116  3 H  s          
     7      0.498129  1 O  px                 3      0.420484  1 O  px         
    30     -0.273368  3 H  s                 11     -0.168600  1 O  px         

 Vector    7  Occ=0.000000D+00  E=-2.476156D-02
              MO Center= -3.3D-02,  4.4D-01,  5.2D-07, r^2= 7.5D-01
   Bfn.  Coefficient  Atom+Function         Bfn.  Coefficient  Atom+Function  
  ----- ------------  ---------------      ----- ------------  ---------------
     8      0.547864  1 O  py                24     -0.548857  2 H  s          
     4      0.446472  1 O  py                23     -0.283126  2 H  s          
     6      0.273882  1 O  s                 31      0.221093  3 H  s          

 Vector    8  Occ=0.000000D+00  E=-1.699133D-02
              MO Center= -5.5D-02, -3.6D-02,  7.8D-06, r^2= 1.4D+00
   Bfn.  Coefficient  Atom+Function         Bfn.  Coefficient  Atom+Function  
  ----- ------------  ---------------      ----- ------------  ---------------
    13      0.658467  1 O  pz                 5     -0.517087  1 O  pz         
     9     -0.457055  1 O  pz                17      0.265251  1 O  pz         

 Vector    9  Occ=0.000000D+00  E= 7.095641D-02
              MO Center=  5.2D-01,  3.4D-01, -5.3D-06, r^2= 1.1D+01
   Bfn.  Coefficient  Atom+Function         Bfn.  Coefficient  Atom+Function  
  ----- ------------  ---------------      ----- ------------  ---------------
    33      0.983502  3 H  s                 26      0.971948  2 H  s          
    14     -0.805331  1 O  s                 32     -0.331210  3 H  s          
    25     -0.310035  2 H  s                 10      0.248468  1 O  s          

 Vector   10  Occ=0.000000D+00  E= 8.761696D-02
              MO Center=  5.1D-01,  3.6D-01, -2.4D-09, r^2= 1.4D+01
   Bfn.  Coefficient  Atom+Function         Bfn.  Coefficient  Atom+Function  
  ----- ------------  ---------------      ----- ------------  ---------------
    26      2.669914  2 H  s                 33     -2.662785  3 H  s          
    32      0.440859  3 H  s                 25     -0.422113  2 H  s          
    16     -0.341219  1 O  py                15      0.229187  1 O  px         

 Vector   11  Occ=0.000000D+00  E= 2.384855D-01
              MO Center= -2.3D-01, -1.7D-01,  4.9D-06, r^2= 5.6D+00
   Bfn.  Coefficient  Atom+Function         Bfn.  Coefficient  Atom+Function  
  ----- ------------  ---------------      ----- ------------  ---------------
    14      3.694522  1 O  s                 25     -2.860813  2 H  s          
    32     -2.716399  3 H  s                 15      1.919661  1 O  px         
    16      1.376823  1 O  py                11     -0.347289  1 O  px         
    26      0.259887  2 H  s                 10      0.255115  1 O  s          
    33      0.240720  3 H  s                 12     -0.238515  1 O  py         

 Vector   12  Occ=0.000000D+00  E= 2.779408D-01
              MO Center= -4.4D-01, -3.0D-01,  1.6D-10, r^2= 5.8D+00
   Bfn.  Coefficient  Atom+Function         Bfn.  Coefficient  Atom+Function  
  ----- ------------  ---------------      ----- ------------  ---------------
    25      3.388026  2 H  s                 32     -3.302710  3 H  s          
    16     -2.891809  1 O  py                15      1.995943  1 O  px         
    26      0.779580  2 H  s                 33     -0.760297  3 H  s          
    12      0.307580  1 O  py                24     -0.264268  2 H  s          
    31      0.257072  3 H  s                 11     -0.216117  1 O  px         

 Vector   13  Occ=0.000000D+00  E= 3.160421D-01
              MO Center=  6.5D-02,  4.9D-02, -2.4D-05, r^2= 5.4D+00
   Bfn.  Coefficient  Atom+Function         Bfn.  Coefficient  Atom+Function  
  ----- ------------  ---------------      ----- ------------  ---------------
    14      8.274406  1 O  s                 25     -4.006886  2 H  s          
    32     -3.885836  3 H  s                 15      1.504578  1 O  px         
    10     -1.149334  1 O  s                 16      1.086918  1 O  py         
    26     -0.365243  2 H  s                 33     -0.305014  3 H  s          
    24      0.238313  2 H  s                 31      0.229076  3 H  s          

 Vector   14  Occ=0.000000D+00  E= 4.912970D-01
              MO Center=  7.4D-01,  1.1D-02, -4.1D-09, r^2= 6.2D+00
   Bfn.  Coefficient  Atom+Function         Bfn.  Coefficient  Atom+Function  
  ----- ------------  ---------------      ----- ------------  ---------------
    32      3.603466  3 H  s                 25     -2.815348  2 H  s          
    33     -1.735681  3 H  s                 26      1.518943  2 H  s          
    31     -1.191045  3 H  s                 24      0.870821  2 H  s          
    16      0.439704  1 O  py                15     -0.365642  1 O  px         
    14     -0.211226  1 O  s          

 Vector   15  Occ=0.000000D+00  E= 5.007684D-01
              MO Center=  3.2D-01,  7.2D-01, -1.0D-07, r^2= 5.4D+00
   Bfn.  Coefficient  Atom+Function         Bfn.  Coefficient  Atom+Function  
  ----- ------------  ---------------      ----- ------------  ---------------
    25      3.365901  2 H  s                 32      2.311040  3 H  s          
    14     -1.981863  1 O  s                 24     -1.234055  2 H  s          
    26     -0.914044  2 H  s                 31     -0.911994  3 H  s          
    33     -0.424245  3 H  s                 16     -0.321029  1 O  py         
    15     -0.275219  1 O  px                10     -0.270542  1 O  s          


 center of mass
 --------------
 x =  -0.07599894 y =  -0.05100044 z =   0.00000000

 moments of inertia (a.u.)
 ------------------
           3.637625824038           1.240657508291           0.000000000000
           1.240657508291           2.833002082974           0.000000000000
           0.000000000000           0.000000000000           6.470627907012

  Mulliken analysis of the total density
  --------------------------------------

    Atom       Charge   Shell Charges
 -----------   ------   -------------------------------------------------------
    1 O    8     8.51   1.08  0.91  0.94  0.99  2.08  0.79  1.52 -0.01  0.19  0.01
    2 H    1     0.75   0.26  0.39  0.01  0.01  0.07
    3 H    1     0.74   0.26  0.40  0.02  0.01  0.07

       Multipole analysis of the density wrt the origin
       ------------------------------------------------

     L   x y z        total         open         nuclear
     -   - - -        -----         ----         -------
     0   0 0 0     -0.000000      0.000000     10.000000

     1   1 0 0      0.667355      0.000000     -0.000000
     1   0 1 0      0.453661      0.000000      0.000000
     1   0 0 1     -0.000001      0.000000      0.000000

     2   2 0 0     -4.254754      0.000000      2.679864
     2   1 1 0     -0.868285      0.000000     -1.319030
     2   1 0 1      0.000001      0.000000      0.000000
     2   0 2 0     -3.644415      0.000000      3.550325
     2   0 1 1      0.000001      0.000000      0.000000
     2   0 0 2     -5.774141      0.000000      0.000000


 Parallel integral file used       3 records with       0 large values

                   NWChem Extensible Many-Electron Theory Module
                   ---------------------------------------------

              ======================================================
                   This portion of the program was automatically
                  generated by a Tensor Contraction Engine (TCE).
                  The development of this portion of the program
                 and TCE was supported by US Department of Energy,
                Office of Science, Office of Basic Energy Science.
                      TCE is a product of Battelle and PNNL.
              Please cite: S.Hirata, J.Phys.Chem.A 107, 9887 (2003).
              ======================================================

                                        H2O


            General Information
            -------------------
      Number of processors :     1
         Wavefunction type : Restricted Hartree-Fock
          No. of electrons :    10
           Alpha electrons :     5
            Beta electrons :     5
           No. of orbitals :    72
            Alpha orbitals :    36
             Beta orbitals :    36
        Alpha frozen cores :     0
         Beta frozen cores :     0
     Alpha frozen virtuals :     0
      Beta frozen virtuals :     0
         Spin multiplicity : singlet 
    Number of AO functions :    36
       Number of AO shells :    20
        Use of symmetry is : off
      Symmetry adaption is : off
         Schwarz screening : 0.10D-09

          Correlation Information
          -----------------------
          Calculation type : Coupled-cluster singles & doubles                           
   Perturbative correction : none                                                        
            Max iterations :      300
        Residual threshold : 0.10D-06
     T(0) DIIS level shift : 0.00D+00
     L(0) DIIS level shift : 0.00D+00
     T(1) DIIS level shift : 0.00D+00
     L(1) DIIS level shift : 0.00D+00
     T(R) DIIS level shift : 0.00D+00
     T(I) DIIS level shift : 0.00D+00
   CC-T/L Amplitude update :  5-th order DIIS
                I/O scheme : Global Array Library
        L-threshold :  0.10D-06
        EOM-threshold :  0.10D-06
 no EOMCCSD initial starts read in
 TCE RESTART OPTIONS
 READ_INT:   F
 WRITE_INT:  F
 READ_TA:    F
 WRITE_TA:   F
 READ_XA:    F
 WRITE_XA:   F
 READ_IN3:   F
 WRITE_IN3:  F
 SLICE:      F
 D4D5:       F
 quantumc:   F
 qrotation:  F
 pwtce:      F
 qducc:      T
 nacto:                         0
 nrotv:                         0
 nrot:                          0

            Memory Information
            ------------------
          Available GA space size is    1610611440 doubles
          Available MA space size is    1610610740 doubles

 Maximum block size        32 doubles

 tile_dim =     31

 Block   Spin    Irrep     Size     Offset   Alpha
 -------------------------------------------------
   1    alpha     a      5 doubles       0       1
   2    beta      a      5 doubles       5       1
   3    alpha     a     31 doubles      10       3
   4    beta      a     31 doubles      41       3

 Global array virtual files algorithm will be used

 Parallel file system coherency ......... OK

 Integral file          = ./H2O.aoints.0
 Record size in doubles =  65536        No. of integs per rec  =  43688
 Max. records in memory =     10        Max. records in file   = 232479
 No. of bits per label  =      8        No. of bits per value  =     64


 #quartets = 2.216D+04 #integrals = 1.003D+05 #direct =  0.0% #cached =100.0%


 Fock matrix recomputed
 1-e file size   =             1296
 1-e file name   = ./H2O.f1
 Cpu & wall time / sec            0.0            0.0
 4-electron integrals stored in orbital form

 v2    file size   =          1125026
 4-index algorithm nr.  13 is used
 imaxsize =       30
 imaxsize ichop =        0
 Cpu & wall time / sec            0.2            0.3
 T1-number-of-tasks                    1

 t1 file size   =              155
 t1 file name   = ./H2O.t1
 t1 file handle =       -998
 T2-number-of-boxes                    2

 t2 file size   =            48050
 t2 file name   = ./H2O.t2
 t2 file handle =       -996
CCSD iterations
 ---------------------------------------------------------
 Iter          Residuum       Correlation     Cpu    Wall 
 ---------------------------------------------------------
NEW TASK SCHEDULING
CCSD_T1_NTS --- OK
CCSD_T2_NTS --- OK
    1   1.1201775575282  -0.4084563222762     0.0     0.0
    2   2.0527148235554   0.0737234674440     0.0     0.0
    3   4.0129605678783  -0.8536814607267     0.0     0.0
    4   8.2747001647813   0.9147509803832     0.0     0.0
    5  11.4394351123331  -2.2601252325366     0.0     0.0
 MICROCYCLE DIIS UPDATE:                    5                    5
    6   0.0777825063642  -0.2421725226025     0.0     0.0
    7   0.1048160831451  -0.2530457408709     0.0     0.0
    8   0.2226818487334  -0.2243329425732     0.0     0.0
    9   0.4924712931542  -0.2601997256318     0.0     0.0
   10   1.0967605210578  -0.0022459813124     0.0     0.0
 MICROCYCLE DIIS UPDATE:                   10                    5
   11   0.0094498193318  -0.2486726493859     0.0     0.0
   12   0.0069383172393  -0.2481956282319     0.0     0.0
   13   0.0123053308708  -0.2496056743094     0.0     0.0
   14   0.0277983387806  -0.2462252661909     0.0     0.0
   15   0.0637056175970  -0.2537671590161     0.0     0.0
 MICROCYCLE DIIS UPDATE:                   15                    5
   16   0.0006822631230  -0.2487452322945     0.0     0.0
   17   0.0007490963867  -0.2486527887747     0.1     0.1
   18   0.0013190765069  -0.2488657613277     0.1     0.1
   19   0.0026604819949  -0.2484317035004     0.0     0.0
   20   0.0055048549787  -0.2493402509084     0.1     0.1
 MICROCYCLE DIIS UPDATE:                   20                    5
   21   0.0000820820150  -0.2487278209871     0.1     0.1
   22   0.0000645970761  -0.2487290304769     0.0     0.0
   23   0.0000992951766  -0.2487269758541     0.0     0.0
   24   0.0002013702061  -0.2487280474894     0.0     0.0
   25   0.0004260854827  -0.2487348942020     0.0     0.0
 MICROCYCLE DIIS UPDATE:                   25                    5
   26   0.0000135804950  -0.2487291039280     0.0     0.0
   27   0.0000140344221  -0.2487273190162     0.0     0.0
   28   0.0000239199279  -0.2487313287227     0.0     0.0
   29   0.0000491681299  -0.2487231333602     0.0     0.0
   30   0.0001033868072  -0.2487402589201     0.0     0.0
 MICROCYCLE DIIS UPDATE:                   30                    5
   31   0.0000023871921  -0.2487286724850     0.0     0.0
   32   0.0000024247780  -0.2487287476655     0.0     0.0
   33   0.0000042304644  -0.2487286150743     0.0     0.0
   34   0.0000086319907  -0.2487287290014     0.0     0.0
   35   0.0000182372519  -0.2487288672241     0.0     0.0
 MICROCYCLE DIIS UPDATE:                   35                    5
   36   0.0000004642034  -0.2487287080792     0.0     0.0
   37   0.0000004038227  -0.2487286613391     0.0     0.0
   38   0.0000006372445  -0.2487287673449     0.0     0.0
   39   0.0000013155912  -0.2487285491018     0.0     0.0
   40   0.0000027996408  -0.2487290063526     0.0     0.0
 MICROCYCLE DIIS UPDATE:                   40                    5
   41   0.0000000826684  -0.2487286938914     0.0     0.0
 -----------------------------------------------------------------
 Iterations converged
 CCSD correlation energy / hartree =        -0.248728693891350
 CCSD total energy / hartree       =       -76.298689455367466

 Singles contributions

 Doubles contributions
     6a   (alpha)     7a   (alpha) ---     4a   (alpha)     5a   (alpha)        0.0203316840
     6a   (alpha)     7a   (alpha) ---     5a   (alpha)     4a   (alpha)       -0.0203316840
     6a   (alpha)     8a   (alpha) ---     3a   (alpha)     5a   (alpha)       -0.0246160094
     6a   (alpha)     8a   (alpha) ---     5a   (alpha)     3a   (alpha)        0.0246160094
     7a   (alpha)     6a   (alpha) ---     4a   (alpha)     5a   (alpha)       -0.0203316840
     7a   (alpha)     6a   (alpha) ---     5a   (alpha)     4a   (alpha)        0.0203316840
     7a   (alpha)     8a   (alpha) ---     3a   (alpha)     4a   (alpha)       -0.0246279583
     7a   (alpha)     8a   (alpha) ---     4a   (alpha)     3a   (alpha)        0.0246279583
     8a   (alpha)     6a   (alpha) ---     3a   (alpha)     5a   (alpha)        0.0246160094
     8a   (alpha)     6a   (alpha) ---     5a   (alpha)     3a   (alpha)       -0.0246160094
     8a   (alpha)     7a   (alpha) ---     3a   (alpha)     4a   (alpha)        0.0246279583
     8a   (alpha)     7a   (alpha) ---     4a   (alpha)     3a   (alpha)       -0.0246279583
     6a   (alpha)     6a   (beta ) ---     5a   (alpha)     5a   (beta )       -0.0729999821
     6a   (alpha)     7a   (beta ) ---     4a   (alpha)     4a   (beta )       -0.0252383819
     6a   (alpha)     7a   (beta ) ---     5a   (alpha)     4a   (beta )       -0.0231702774
     6a   (alpha)     7a   (beta ) ---     5a   (alpha)     5a   (beta )        0.0223030159
     6a   (alpha)     8a   (beta ) ---     5a   (alpha)     3a   (beta )        0.0348081534
     7a   (alpha)     6a   (beta ) ---     4a   (alpha)     4a   (beta )       -0.0252383819
     7a   (alpha)     6a   (beta ) ---     4a   (alpha)     5a   (beta )       -0.0231702774
     7a   (alpha)     6a   (beta ) ---     5a   (alpha)     5a   (beta )        0.0223030159
     7a   (alpha)     7a   (beta ) ---     4a   (alpha)     4a   (beta )       -0.0671520754
     7a   (alpha)     8a   (beta ) ---     4a   (alpha)     3a   (beta )        0.0344636329
     8a   (alpha)     6a   (beta ) ---     3a   (alpha)     5a   (beta )        0.0348081534
     8a   (alpha)     7a   (beta ) ---     3a   (alpha)     4a   (beta )        0.0344636329
     8a   (alpha)     8a   (beta ) ---     3a   (alpha)     3a   (beta )       -0.0570320543
 Ground state specification:
 exp(T)|Ref>~(1+T)|Ref>
 ------- a(p)+/a(q) strings ----------

 singles norm

 doubles norm

 Reference string
   1.0000000000000000      :(1a)+ (2a)+ (3a)+ (4a)+ (5a)+ (1b)+ (2b)+ (3b)+ (4b)+ (5b)+ |0>

 Singles strings

 Doubles strings
 -------------------------------------
 enrep_tce =    9.1011739597310548     
  EHF(total)         =       -76.04996076
  Shift (HFtot-HFA)  =         0.00000000
 ALL OCCUPIED ORBITALS ARE ACTIVE IN DUCC --> NO SHIFT
 Number of active orbitals                    8
 Number of active alpha electrons                    5
 Number of active beta electrons                    5
  nos                    10
  nvs                    62
 noas                     5
 nobs                     5
 nvas                    31
 nvbs                    31
 nactv                     3
 DUCC MODEL =                     6
 NONHF =  T
 F-T1 correlation    =    1.0314871096210297E-004
 V-T1-T1 correlation =   -1.6317339904906856E-007
 V-T2 correlation    =  -0.24883167942902890     
 Total correlation   =  -0.24872869389146585     
 F-T1(Ext) correlation         =    1.2809445624504165E-004
 V-T1(Ext)-T1(Ext) correlation =    6.4620990805359630E-006
 V-T2(Ext) correlation         =  -0.15995343599035466     
 Total Ext correlation         =  -0.15981887943502909     
1-BODY TIME =   25.566 SECONDS.
  HHHH TIME =   21.648 SECONDS.
  PPPP TIME =    0.110 SECONDS.
  HHHP TIME =    3.410 SECONDS.
  PPPH TIME =    0.309 SECONDS.
  HPHP TIME =    2.139 SECONDS.
  HHPP TIME =    1.836 SECONDS.
 ONE-BODY UNITARY CHECK
 TWO-BODY UNITARY CHECK
                    1                    1                    1                    2   9.6151072230524245E-012
                    1                    1                    1                    4   1.2240074991729589E-011
                    1                    1                    1                    5   9.8681581457728748E-012
                    1                    1                    2                    1  -9.6151081970602841E-012
                    1                    1                    2                    4  -1.8125100900994372E-010
                    1                    1                    2                    5  -1.5360002996677132E-010
                    1                    1                    4                    1  -1.2240074334260485E-011
                    1                    1                    4                    2   1.8125100901964820E-010
                    1                    1                    5                    1  -9.8681594899136596E-012
                    1                    1                    5                    2   1.5360002999947370E-010
                    1                    2                    1                    1  -9.6151072230524245E-012
                    1                    2                    1                    4  -2.9347115883260333E-011
                    1                    2                    1                    5  -2.3168429848230421E-011
                    1                    2                    2                    1   1.4414647253602197E-010
                    1                    2                    2                    2  -4.4990471353671805E-010
                    1                    2                    2                    4   4.6379681865882372E-010
                    1                    2                    2                    5   3.7823512204215870E-010
                    1                    2                    4                    1  -9.4889702866030046E-011
                    1                    2                    4                    2   2.1236529548773753E-010
                    1                    2                    4                    4  -1.3333516706776479E-010
                    1                    2                    4                    5  -1.7625540061478023E-010
                    1                    2                    5                    1  -7.8845194262378016E-011
                    1                    2                    5                    2   1.6864137690475456E-010
                    1                    2                    5                    4  -1.7246461048086377E-010
                    1                    2                    5                    5  -5.7044800597336197E-011
                    1                    3                    2                    3  -9.5724754598652817E-010
                    1                    3                    3                    1   5.7235227668428479E-010
                    1                    3                    3                    2  -1.7722515453875293E-009
                    1                    3                    3                    4   2.9704884732528747E-010
                    1                    3                    3                    5   2.3851023413234973E-010
                    1                    3                    4                    3   6.1045603641507462E-010
                    1                    3                    5                    3   4.9523071407597818E-010
                    1                    4                    1                    1  -1.2240074991729589E-011
                    1                    4                    1                    2   2.9347115883260333E-011
                    1                    4                    2                    1  -1.9105463738844364E-012
                    1                    4                    2                    2   2.5954641032250183E-010
                    1                    4                    2                    4  -4.7814001152488017E-010
                    1                    4                    2                    5  -1.1714651601199555E-011
                    1                    4                    3                    3   4.2825080605656170E-011
                    1                    4                    4                    1   2.1977775155335166E-010
                    1                    4                    4                    2  -5.5643952683384623E-010
                    1                    4                    4                    4   5.9494089755075635E-011
                    1                    4                    4                    5  -4.1324931324138170E-011
                    1                    4                    5                    1  -4.3948279043748428E-011
                    1                    4                    5                    2  -1.2654419732135297E-010
                    1                    4                    5                    4   4.8615513958266687E-010
                    1                    4                    5                    5   2.8070155562885155E-011
                    1                    5                    1                    1  -9.8681581457728748E-012
                    1                    5                    1                    2   2.3168429848230421E-011
                    1                    5                    2                    1   3.0652858723501097E-012
                    1                    5                    2                    2   1.9510966204593560E-010
                    1                    5                    2                    4   1.2625474823328275E-011
                    1                    5                    2                    5  -4.7469176029171778E-010
                    1                    5                    3                    3   3.5088880162842619E-011
                    1                    5                    4                    1  -4.8035096733567428E-011
                    1                    5                    4                    2  -1.2080360488526433E-010
                    1                    5                    4                    4   9.1183718619627804E-011
                    1                    5                    4                    5   4.9034760540161981E-010
                    1                    5                    5                    1   2.1828450158523083E-010
                    1                    5                    5                    2  -3.7717124302255600E-010
                    1                    5                    5                    4  -1.8944506900708813E-010
                    1                    5                    5                    5  -7.3761171870799303E-011
                    1                    6                    1                    7  -5.2936238725820317E-011
                    1                    6                    1                    9  -4.0242809085100362E-012
                    1                    6                    1                   10  -2.0405899192610377E-012
                    1                    6                    2                    6  -9.9566445366239265E-011
                    1                    6                    2                    7  -7.9598253335810831E-011
                    1                    6                    2                    9   1.8464304217535865E-010
                    1                    6                    2                   10   1.3468222782690720E-010
                    1                    6                    3                    8  -1.2915505782917780E-009
                    1                    6                    4                    6   7.9925469020913908E-011
                    1                    6                    4                    7  -1.4865041814658697E-011
                    1                    6                    4                    9  -7.5333310770031581E-010
                    1                    6                    4                   10   2.3528904909489445E-010
                    1                    6                    5                    6   6.6583807911690940E-011
                    1                    6                    5                    7  -9.5928425793145866E-012
                    1                    6                    5                    9   2.3450077513489931E-010
                    1                    6                    5                   10  -8.1136187699004658E-010
                    1                    6                    6                    2   6.2551352986162101E-011
                    1                    6                    6                    4   1.6264295465973078E-011
                    1                    6                    6                    5   1.1908765640278318E-011
                    1                    6                    7                    1   8.9951324167003577E-011
                    1                    6                    7                    2   7.9598253335810831E-011
                    1                    6                    7                    4  -3.6589404520549068E-010
                    1                    6                    7                    5  -2.8828225830807019E-010
                    1                    6                    8                    3   1.2915505782917780E-009
                    1                    6                    9                    1  -9.2165483578376950E-011
                    1                    6                    9                    2   1.9611604484479073E-010
                    1                    6                    9                    4   7.5333310770031581E-010
                    1                    6                    9                    5  -2.3485162295791562E-010
                    1                    6                   10                    1  -7.6451983632708220E-011
                    1                    6                   10                    2   1.6319286937419020E-010
                    1                    6                   10                    4  -2.3493820083819728E-010
                    1                    6                   10                    5   8.1136187699004658E-010
                    1                    7                    1                    6   5.2936238725820317E-011
                    1                    7                    1                    9   2.2472092763015095E-011
                    1                    7                    1                   10   1.8586672131948312E-011
                    1                    7                    2                    6   5.3348741396730404E-010
                    1                    7                    2                    7   5.2141936601746153E-010
                    1                    7                    2                    9  -2.1455760518956923E-010
                    1                    7                    2                   10  -1.3748105410181510E-010
                    1                    7                    3                    8   2.5296361047533189E-009
                    1                    7                    4                    6  -2.6134593577795129E-010
                    1                    7                    4                    7   8.6354761882900810E-011
                    1                    7                    4                    9   1.4686067171393313E-009
                    1                    7                    4                   10  -5.1965542752132471E-010
                    1                    7                    5                    6  -2.1666637646348963E-010
                    1                    7                    5                    7   1.1326905906272611E-010
                    1                    7                    5                    9  -5.2892274213884802E-010
                    1                    7                    5                   10   1.6508426257944020E-009
                    1                    7                    6                    1  -6.2551366863949909E-011
                    1                    7                    6                    4  -5.1819424402507752E-011
                    1                    7                    6                    5  -4.1755124097903051E-011
                    1                    7                    7                    1  -3.8934033774751242E-010
                    1                    7                    7                    2  -9.7132408713451746E-010
                    1                    7                    7                    4   6.7835453573805715E-010
                    1                    7                    7                    5   5.1571610350242825E-010
                    1                    7                    8                    3  -2.5291612172628763E-009
                    1                    7                    9                    1   1.6645644931867487E-010
                    1                    7                    9                    2   1.2601040133217167E-010
                    1                    7                    9                    4  -1.6019418968421517E-009
                    1                    7                    9                    5   3.4340002857350532E-010
                    1                    7                   10                    1   1.3782119629573986E-010
                    1                    7                   10                    2   5.5372408047649202E-011
                    1                    7                   10                    4   3.5645813091598338E-010
                    1                    7                   10                    5  -1.7078874252340892E-009
                    1                    8                    2                    8   5.4398418755652322E-010
                    1                    8                    3                    6  -1.0940793410130212E-011
                    1                    8                    3                    7   2.1433235047885191E-009
                    1                    8                    3                    9   2.4986753117961502E-011
                    1                    8                    3                   10   3.9476311108899154E-011
                    1                    8                    4                    8   5.2369304162289132E-010
                    1                    8                    5                    8   4.4083869367439465E-010
                    1                    8                    7                    3  -1.5012318818619086E-009
                    1                    8                    8                    1   5.8329296948045339E-010
                    1                    8                    8                    2  -3.9155748990382655E-009
                    1                    8                    8                    4   2.7206217183620152E-010
                    1                    8                    8                    5   1.9903394861062185E-010
                    1                    8                    9                    3   8.6762904152881681E-011
                    1                    8                   10                    3   5.4391996982816604E-011
                    1                    9                    1                    6   4.0242809085100362E-012
                    1                    9                    1                    7  -2.2472092763015095E-011
                    1                    9                    1                   10   1.4109616253143997E-012
                    1                    9                    2                    6  -4.7131014585879982E-011
                    1                    9                    2                    7   1.7329307737054545E-010
                    1                    9                    2                    9   7.6246104915855817E-011
                    1                    9                    2                   10  -5.9509857111561537E-011
                    1                    9                    3                    8   2.3449920998064311E-010
                    1                    9                    4                    6  -4.4093929896238393E-012
                    1                    9                    4                    7   8.8746591672683728E-010
                    1                    9                    4                    9   1.5370037846629270E-009
[...]
    8    2    3    1       -0.0189715996
    8    2    3    2       -0.0511781358
    8    2    3    3       -0.0000006356
    8    2    3    4       -0.0072976397
    8    2    3    5       -0.0062770940
    8    2    3    6       -0.0148579593
    8    2    3    7       -0.0075409242
    8    2    3    8        0.0000005262
    8    3    3    1       -0.0000001972
    8    3    3    2       -0.0000008869
    8    3    3    3       -0.2047868709
    8    3    3    4       -0.0000001292
    8    3    3    5       -0.0000001226
    8    3    3    6       -0.0000006885
    8    3    3    7       -0.0000004013
    8    3    3    8        0.1604217859
    8    4    3    1       -0.0036259742
    8    4    3    2       -0.0040578264
    8    4    3    3        0.0000005701
    8    4    3    4       -0.0078256801
    8    4    3    5       -0.0015721900
    8    4    3    6       -0.0086848526
    8    4    3    7       -0.0156944876
    8    4    3    8       -0.0000003688
    8    5    3    1       -0.0030907163
    8    5    3    2       -0.0035269784
    8    5    3    3        0.0000004055
    8    5    3    4       -0.0015739890
    8    5    3    5       -0.0071514667
    8    5    3    6       -0.0164802783
    8    5    3    7        0.0048348273
    8    5    3    8       -0.0000002499
    8    6    3    1       -0.0082092705
    8    6    3    2       -0.0314121541
    8    6    3    3       -0.0000006558
    8    6    3    4       -0.0163819475
    8    6    3    5       -0.0274036478
    8    6    3    6       -0.0195448378
    8    6    3    7       -0.0019369465
    8    6    3    8        0.0000000940
    8    7    3    1       -0.0041935771
    8    7    3    2       -0.0159721892
    8    7    3    3       -0.0000003416
    8    7    3    4       -0.0251242685
    8    7    3    5        0.0056931103
    8    7    3    6       -0.0019461949
    8    7    3    7       -0.0165823527
    8    7    3    8        0.0000000456
    8    8    3    1        0.0000001335
    8    8    3    2        0.0000016107
    8    8    3    3        0.6373573986
    8    8    3    4        0.0000002447
    8    8    3    5        0.0000002362
    8    8    3    6        0.0000006809
    8    8    3    7        0.0000004045
    8    8    3    8       -0.1872612681
    8    1    4    1        0.0000000284
    8    1    4    2        0.0000002198
    8    1    4    3       -0.0080738810
    8    1    4    4        0.0000001814
    8    1    4    5        0.0000000607
    8    1    4    6        0.0000001011
    8    1    4    7        0.0000000784
    8    1    4    8        0.0046846749
    8    2    4    1        0.0000001106
    8    2    4    2        0.0000003121
    8    2    4    3       -0.0066054215
    8    2    4    4        0.0000002403
    8    2    4    5        0.0000000480
    8    2    4    6        0.0000001566
    8    2    4    7        0.0000001259
    8    2    4    8        0.0045082950
    8    3    4    1        0.0033644498
    8    3    4    2        0.0009402538
    8    3    4    3       -0.0000001175
    8    3    4    4       -0.1523819460
    8    3    4    5       -0.0047643028
    8    3    4    6       -0.0476143602
    8    3    4    7       -0.1105103419
    8    3    4    8       -0.0000003688
    8    4    4    1       -0.0000000615
    8    4    4    2        0.0000000369
    8    4    4    3       -0.0073019420
    8    4    4    4        0.0000007345
    8    4    4    5        0.0000000260
    8    4    4    6        0.0000001507
    8    4    4    7        0.0000003447
    8    4    4    8        0.0160169057
    8    5    4    1        0.0000000073
    8    5    4    2        0.0000000107
    8    5    4    3       -0.0014995640
    8    5    4    4        0.0000004093
    8    5    4    5        0.0000000489
    8    5    4    6        0.0000001749
    8    5    4    7        0.0000002930
    8    5    4    8        0.0013239875
    8    6    4    1       -0.0000000082
    8    6    4    2        0.0000001668
    8    6    4    3       -0.0163295298
    8    6    4    4        0.0000001905
    8    6    4    5        0.0000000781
    8    6    4    6        0.0000000599
    8    6    4    7        0.0000000576
    8    6    4    8        0.0042433529
    8    7    4    1       -0.0000000899
    8    7    4    2       -0.0000001036
    8    7    4    3       -0.0245292300
    8    7    4    4        0.0000000154
    8    7    4    5        0.0000000484
    8    7    4    6        0.0000000107
    8    7    4    7        0.0000000142
    8    7    4    8        0.0075402912
    8    8    4    1       -0.0059321525
    8    8    4    2        0.0051044786
    8    8    4    3        0.0000002447
    8    8    4    4        0.5572620030
    8    8    4    5        0.0071281125
    8    8    4    6        0.0613078266
    8    8    4    7        0.1427780647
    8    8    4    8        0.0000006133
    8    1    5    1        0.0000000103
    8    1    5    2        0.0000001715
    8    1    5    3       -0.0068476548
    8    1    5    4        0.0000000607
    8    1    5    5        0.0000001506
    8    1    5    6        0.0000001038
    8    1    5    7        0.0000000214
    8    1    5    8        0.0039967713
    8    2    5    1        0.0000000856
    8    2    5    2        0.0000002413
    8    2    5    3       -0.0056906231
    8    2    5    4        0.0000000477
    8    2    5    5        0.0000002140
    8    2    5    6        0.0000001662
    8    2    5    7        0.0000000300
    8    2    5    8        0.0039301290
    8    3    5    1        0.0028204078
    8    3    5    2        0.0004360886
    8    3    5    3       -0.0000001131
    8    3    5    4       -0.0047679234
    8    3    5    5       -0.1491326105
    8    3    5    6       -0.1107319589
    8    3    5    7        0.0455099520
    8    3    5    8       -0.0000002499
    8    4    5    1        0.0000000044
    8    4    5    2        0.0000000098
    8    4    5    3       -0.0015004024
    8    4    5    4        0.0000000249
    8    4    5    5        0.0000005680
    8    4    5    6        0.0000004186
    8    4    5    7       -0.0000001189
    8    4    5    8        0.0013239875
    8    5    5    1       -0.0000000627
    8    5    5    2        0.0000000369
    8    5    5    3       -0.0066590828
    8    5    5    4        0.0000000500
    8    5    5    5        0.0000005731
    8    5    5    6        0.0000002056
    8    5    5    7       -0.0000001070
    8    5    5    8        0.0155751651
    8    6    5    1       -0.0000000789
    8    6    5    2       -0.0000000257
    8    6    5    3       -0.0268727201
    8    6    5    4        0.0000000764
    8    6    5    5        0.0000000454
    8    6    5    6        0.0000000553
    8    6    5    7       -0.0000000032
    8    6    5    8        0.0079209969
    8    7    5    1        0.0000000601
    8    7    5    2        0.0000002103
    8    7    5    3        0.0052742720
    8    7    5    4        0.0000000512
    8    7    5    5        0.0000001475
    8    7    5    6        0.0000000593
    8    7    5    7       -0.0000000003
    8    7    5    8       -0.0022570387
    8    8    5    1       -0.0049727357
    8    8    5    2        0.0045225490
    8    8    5    3        0.0000002362
    8    8    5    4        0.0071281125
    8    8    5    5        0.5520157253
    8    8    5    6        0.1436446424
    8    8    5    7       -0.0592178242
    8    8    5    8        0.0000004431
    8    1    6    1       -0.0000001105
    8    1    6    2        0.0000001883
    8    1    6    3       -0.0109214264
    8    1    6    4        0.0000000931
    8    1    6    5        0.0000000905
    8    1    6    6        0.0000002353
    8    1    6    7        0.0000000562
    8    1    6    8        0.0133598833
    8    2    6    1        0.0000001188
    8    2    6    2        0.0000004373
    8    2    6    3       -0.0158789847
    8    2    6    4        0.0000001745
    8    2    6    5        0.0000001975
    8    2    6    6        0.0000002010
    8    2    6    7        0.0000000873
    8    2    6    8        0.0109324426
    8    3    6    1        0.0059830353
    8    3    6    2       -0.0126679689
    8    3    6    3       -0.0000006471
    8    3    6    4       -0.0464195025
    8    3    6    5       -0.1085677737
    8    3    6    6       -0.1778149358
    8    3    6    7        0.0033169362
    8    3    6    8        0.0000000940
    8    4    6    1       -0.0000000354
    8    4    6    2        0.0000001003
    8    4    6    3       -0.0091313175
    8    4    6    4        0.0000001413
    8    4    6    5        0.0000004175
    8    4    6    6        0.0000006477
    8    4    6    7        0.0000000178
    8    4    6    8        0.0042433529
    8    5    6    1       -0.0000000841
    8    5    6    2        0.0000000593
    8    5    6    3       -0.0176189268
    8    5    6    4        0.0000001845
    8    5    6    5        0.0000002009
    8    5    6    6        0.0000005500
    8    5    6    7       -0.0000000281
    8    5    6    8        0.0079209969
    8    6    6    1       -0.0000001336
    8    6    6    2       -0.0000000415
    8    6    6    3       -0.0198375955
    8    6    6    4        0.0000000634
    8    6    6    5        0.0000000670
    8    6    6    6        0.0000000172
    8    6    6    7        0.0000000180
    8    6    6    8        0.0335569457
    8    7    6    1        0.0000000333
    8    7    6    2        0.0000001332
    8    7    6    3       -0.0020418048
    8    7    6    4        0.0000000131
    8    7    6    5        0.0000000594
    8    7    6    6        0.0000001477
    8    7    6    7       -0.0000000821
    8    7    6    8        0.0048215531
    8    8    6    1       -0.0094698541
    8    8    6    2        0.0098815812
    8    8    6    3        0.0000006809
    8    8    6    4        0.0613078266
    8    8    6    5        0.1436446424
    8    8    6    6        0.5758273819
    8    8    6    7       -0.0035177486
    8    8    6    8       -0.0000003213
    8    1    7    1       -0.0000000565
    8    1    7    2        0.0000000964
    8    1    7    3       -0.0055722031
    8    1    7    4        0.0000000663
    8    1    7    5        0.0000000241
    8    1    7    6        0.0000000562
    8    1    7    7        0.0000001575
    8    1    7    8        0.0068116390
    8    2    7    1        0.0000000613
    8    2    7    2        0.0000002275
    8    2    7    3       -0.0080788178
    8    2    7    4        0.0000001525
    8    2    7    5        0.0000000234
    8    2    7    6        0.0000000871
    8    2    7    7        0.0000000729
    8    2    7    8        0.0055322579
    8    3    7    1        0.0030615243
    8    3    7    2       -0.0063693334
    8    3    7    3       -0.0000003806
    8    3    7    4       -0.1083359828
    8    3    7    5        0.0448736113
    8    3    7    6        0.0033276744
    8    3    7    7       -0.1838526925
    8    3    7    8        0.0000000456
    8    4    7    1       -0.0000000888
    8    4    7    2        0.0000000214
    8    4    7    3       -0.0168478155
    8    4    7    4        0.0000003474
    8    4    7    5       -0.0000001087
    8    4    7    6        0.0000000206
    8    4    7    7        0.0000007149
    8    4    7    8        0.0075402912
    8    5    7    1        0.0000000401
    8    5    7    2        0.0000000627
    8    5    7    3        0.0053397349
    8    5    7    4        0.0000002852
    8    5    7    5       -0.0000001165
    8    5    7    6       -0.0000000314
    8    5    7    7        0.0000004666
    8    5    7    8       -0.0022570387
    8    6    7    1        0.0000000334
    8    6    7    2        0.0000001331
    8    6    7    3       -0.0020277945
    8    6    7    4        0.0000000642
    8    6    7    5       -0.0000000079
    8    6    7    6        0.0000000184
    8    6    7    7        0.0000001621
    8    6    7    8        0.0048215531
    8    7    7    1       -0.0000001850
    8    7    7    2       -0.0000002392
    8    7    7    3       -0.0167358856
    8    7    7    4        0.0000000236
    8    7    7    5       -0.0000000005
    8    7    7    6       -0.0000000828
    8    7    7    7       -0.0000000278
    8    7    7    8        0.0268635248
    8    8    7    1       -0.0048207484
    8    8    7    2        0.0048433956
    8    8    7    3        0.0000004045
    8    8    7    4        0.1427780647
    8    8    7    5       -0.0592178242
    8    8    7    6       -0.0035177486
    8    8    7    7        0.5835277623
    8    8    7    8       -0.0000001532
    8    1    8    1        0.0525399927
    8    1    8    2        0.0259636634
    8    1    8    3        0.0000003403
    8    1    8    4        0.0043555372
    8    1    8    5        0.0037210319
    8    1    8    6        0.0131326204
    8    1    8    7        0.0066951886
    8    1    8    8       -0.0000004006
    8    2    8    1        0.0259636634
    8    2    8    2        0.0516046812
    8    2    8    3        0.0000004353
    8    2    8    4        0.0049300025
    8    2    8    5        0.0042956771
    8    2    8    6        0.0116756388
    8    2    8    7        0.0059102972
    8    2    8    8       -0.0000004033
    8    3    8    1        0.0000003403
    8    3    8    2        0.0000004353
    8    3    8    3        0.1591527242
    8    3    8    4       -0.0000003883
    8    3    8    5       -0.0000002670
    8    3    8    6        0.0000000834
    8    3    8    7        0.0000000404
    8    3    8    8       -0.1872612681
    8    4    8    1        0.0043555372
    8    4    8    2        0.0049300025
    8    4    8    3       -0.0000003883
    8    4    8    4        0.0152506252
    8    4    8    5        0.0013510682
    8    4    8    6        0.0042666694
    8    4    8    7        0.0077508072
    8    4    8    8        0.0000006133
    8    5    8    1        0.0037210319
    8    5    8    2        0.0042956771
    8    5    8    3       -0.0000002670
    8    5    8    4        0.0013510682
    8    5    8    5        0.0148967191
    8    5    8    6        0.0081114266
    8    5    8    7       -0.0023984568
    8    5    8    8        0.0000004431
    8    6    8    1        0.0131326204
    8    6    8    2        0.0116756388
    8    6    8    3        0.0000000834
    8    6    8    4        0.0042666694
    8    6    8    5        0.0081114266
    8    6    8    6        0.0335614199
    8    6    8    7        0.0048062212
    8    6    8    8       -0.0000003213
    8    7    8    1        0.0066951886
    8    7    8    2        0.0059102972
    8    7    8    3        0.0000000404
    8    7    8    4        0.0077508072
    8    7    8    5       -0.0023984568
    8    7    8    6        0.0048062212
    8    7    8    7        0.0268894788
    8    7    8    8       -0.0000001532
    8    8    8    1       -0.0000004006
    8    8    8    2       -0.0000004033
    8    8    8    3       -0.1872612681
    8    8    8    4        0.0000006133
    8    8    8    5        0.0000004431
    8    8    8    6       -0.0000003213
    8    8    8    7       -0.0000001532
    8    8    8    8        0.5990605182
 end_two_electron_integrals

 Parallel integral file used       3 records with       0 large values


 Task  times  cpu:       58.2s     wall:       58.5s


                                NWChem Input Module
                                -------------------


 Summary of allocated global arrays
-----------------------------------
  No active global arrays


MA_summarize_allocated_blocks: starting scan ...
MA_summarize_allocated_blocks: scan completed: 0 heap blocks, 0 stack blocks
MA usage statistics:

	allocation statistics:
					      heap	     stack
					      ----	     -----
	current number of blocks	         0	         0
	maximum number of blocks	        18	        42
	current total bytes		         0	         0
	maximum total bytes		   5323032	 716782712
	maximum total K-bytes		      5324	    716783
	maximum total M-bytes		         6	       717


                                     CITATION
                                     --------
                Please cite the following reference when publishing
                           results obtained with NWChem:

          E. Apra, E. J. Bylaska, W. A. de Jong, N. Govind, K. Kowalski,
       T. P. Straatsma, M. Valiev, H. J. J. van Dam, Y. Alexeev, J. Anchell,
       V. Anisimov, F. W. Aquino, R. Atta-Fynn, J. Autschbach, N. P. Bauman,
     J. C. Becca, D. E. Bernholdt, K. Bhaskaran-Nair, S. Bogatko, P. Borowski,
         J. Boschen, J. Brabec, A. Bruner, E. Cauet, Y. Chen, G. N. Chuev,
      C. J. Cramer, J. Daily, M. J. O. Deegan, T. H. Dunning Jr., M. Dupuis,
   K. G. Dyall, G. I. Fann, S. A. Fischer, A. Fonari, H. Fruchtl, L. Gagliardi,
      J. Garza, N. Gawande, S. Ghosh, K. Glaesemann, A. W. Gotz, J. Hammond,
       V. Helms, E. D. Hermes, K. Hirao, S. Hirata, M. Jacquelin, L. Jensen,
   B. G. Johnson, H. Jonsson, R. A. Kendall, M. Klemm, R. Kobayashi, V. Konkov,
      S. Krishnamoorthy, M. Krishnan, Z. Lin, R. D. Lins, R. J. Littlefield,
      A. J. Logsdail, K. Lopata, W. Ma, A. V. Marenich, J. Martin del Campo,
   D. Mejia-Rodriguez, J. E. Moore, J. M. Mullin, T. Nakajima, D. R. Nascimento,
    J. A. Nichols, P. J. Nichols, J. Nieplocha, A. Otero-de-la-Roza, B. Palmer,
    A. Panyala, T. Pirojsirikul, B. Peng, R. Peverati, J. Pittner, L. Pollack,
   R. M. Richard, P. Sadayappan, G. C. Schatz, W. A. Shelton, D. W. Silverstein,
   D. M. A. Smith, T. A. Soares, D. Song, M. Swart, H. L. Taylor, G. S. Thomas,
            V. Tipparaju, D. G. Truhlar, K. Tsemekhman, T. Van Voorhis,
      A. Vazquez-Mayagoitia, P. Verma, O. Villa, A. Vishnu, K. D. Vogiatzis,
        D. Wang, J. H. Weare, M. J. Williamson, T. L. Windus, K. Wolinski,
        A. T. Wong, Q. Wu, C. Yang, Q. Yu, M. Zacharias, Z. Zhang, Y. Zhao,
                                and R. J. Harrison
                        "NWChem: Past, present, and future
                         J. Chem. Phys. 152, 184102 (2020)
                               doi:10.1063/5.0004997

                                      AUTHORS
                                      -------
  E. Apra, E. J. Bylaska, N. Govind, K. Kowalski, M. Valiev, D. Mejia-Rodriguez,
       A. Kunitsa, N. P. Bauman, A. Panyala, W. A. de Jong, T. P. Straatsma,
        H. J. J. van Dam, D. Wang, T. L. Windus, J. Hammond, J. Autschbach,
    K. Bhaskaran-Nair, J. Brabec, K. Lopata, S. A. Fischer, S. Krishnamoorthy,
     M. Jacquelin, W. Ma, M. Klemm, O. Villa, Y. Chen, V. Anisimov, F. Aquino,
    S. Hirata, M. T. Hackler, Eric Hermes, L. Jensen, J. E. Moore, J. C. Becca,
      V. Konjkov, T. Risthaus, M. Malagoli, A. Marenich, A. Otero-de-la-Roza,
        J. Mullin, P. Nichols, R. Peverati, J. Pittner, Y. Zhao, P.-D. Fan,
        A. Fonari, M. J. Williamson, R. J. Harrison, J. R. Rehr, M. Dupuis,
     D. Silverstein, D. M. A. Smith, J. Nieplocha, V. Tipparaju, M. Krishnan,
     B. E. Van Kuiken, A. Vazquez-Mayagoitia, M. Swart, Q. Wu, T. Van Voorhis,
     A. A. Auer, M. Nooijen, L. D. Crosby, E. Brown, G. Cisneros, G. I. Fann,
   H. Fruchtl, J. Garza, K. Hirao, R. A. Kendall, J. A. Nichols, K. Tsemekhman,
    K. Wolinski, J. Anchell, D. E. Bernholdt, P. Borowski, T. Clark, D. Clerc,
   H. Dachsel, M. J. O. Deegan, K. Dyall, D. Elwood, E. Glendening, M. Gutowski,
   A. C. Hess, J. Jaffe, B. G. Johnson, J. Ju, R. Kobayashi, R. Kutteh, Z. Lin,
   R. Littlefield, X. Long, B. Meng, T. Nakajima, S. Niu, L. Pollack, M. Rosing,
   K. Glaesemann, G. Sandrone, M. Stave, H. Taylor, G. Thomas, J. H. van Lenthe,
                               A. T. Wong, Z. Zhang.

 Total times  cpu:       61.2s     wall:       64.0s
