 argument  1 = input.nw
  NWChem w/ OpenMP: maximum threads =    1



============================== echo of input deck ==============================
 echo
 start H2O
 title "H2O"

 memory total 24 gb

 geometry units bohr
 symmetry c1
        O  0.00000000  0.00000000  0.00000000
        H  0.00000000  2.03701225  0.00000000
        H  1.72558000 -0.64860000  0.00000000
 end

 basis spherical
   * library 6-311++G**
 end

 mcscf
   active  8
   actelec 10
   multiplicity 1
   maxiter 40
   vectors input h2o.mos
   vectors output h2o.mos
 end

 task mcscf

 scf
   vectors input h2o.mos
   vectors output h2o-trash.mos
   noscf
 end

 tce
   2eorb
   2emet 13
   ccsd
   maxiter 300
 end

# set tce:print_integrals T
# set tce:qorb 8
# set tce:qela 5
# set tce:qelb 5

 set tce:qducc T
 set tce:nactv 3
 set tce:nonhf T
 set tce:ducc_model 6

 set tce:printtol 0.02

 task tce
================================================================================


                                         
                                         


             Northwest Computational Chemistry Package (NWChem) 7.0.1
             --------------------------------------------------------


                    Environmental Molecular Sciences Laboratory
                       Pacific Northwest National Laboratory
                                Richland, WA 99352

                              Copyright (c) 1994-2020
                       Pacific Northwest National Laboratory
                            Battelle Memorial Institute

             NWChem is an open-source computational chemistry package
                        distributed under the terms of the
                      Educational Community License (ECL) 2.0
             A copy of the license is included with this distribution
                              in the LICENSE.TXT file

                                  ACKNOWLEDGMENT
                                  --------------

            This software and its documentation were developed at the
            EMSL at Pacific Northwest National Laboratory, a multiprogram
            national laboratory, operated for the U.S. Department of Energy
            by Battelle under Contract Number DE-AC05-76RL01830. Support
            for this work was provided by the Department of Energy Office
            of Biological and Environmental Research, Office of Basic
            Energy Sciences, and the Office of Advanced Scientific Computing.


           Job information
           ---------------

    hostname        = WE46210
    program         = /home/baum612/code/nwchem/bin/LINUX64/nwchem
    date            = Thu Sep  5 11:58:49 2024

    compiled        = Wed_Sep_04_02:00:17_2024
    source          = /home/baum612/code/nwchem
    nwchem branch   = 7.0.0
    nwchem revision = nwchem_on_git-4191-g39d87d64de
    ga revision     = 5.8.1
    use scalapack   = F
    input           = input.nw
    prefix          = H2O.
    data base       = ./H2O.db
    status          = startup
    nproc           =        1
    time left       =     -1s



           Memory information
           ------------------

    heap     =  805306366 doubles =   6144.0 Mbytes
    stack    =  805306363 doubles =   6144.0 Mbytes
    global   = 1610612736 doubles =  12288.0 Mbytes (distinct from heap & stack)
    total    = 3221225465 doubles =  24576.0 Mbytes
    verify   = yes
    hardfail = no 


           Directory information
           ---------------------

  0 permanent = .
  0 scratch   = .




                                NWChem Input Module
                                -------------------


                                        H2O
                                        ---
 Turning off AUTOSYM since
 SYMMETRY directive was detected!


          ------
          auto-z
          ------
  no constraints, skipping    0.0000000000000000     
  no constraints, skipping    0.0000000000000000     


                             Geometry "geometry" -> ""
                             -------------------------

 Output coordinates in a.u. (scale by  1.000000000 to convert to a.u.)

  No.       Tag          Charge          X              Y              Z
 ---- ---------------- ---------- -------------- -------------- --------------
    1 O                    8.0000    -0.17255800    -0.13884123     0.00000000
    2 H                    1.0000    -0.17255800     1.89817103     0.00000000
    3 H                    1.0000     1.55302200    -0.78744123     0.00000000

      Atomic Mass 
      ----------- 

      O                 15.994910
      H                  1.007825


 Effective nuclear repulsion energy (a.u.)       8.5802730345

            Nuclear Dipole moment (a.u.) 
            ----------------------------
        X                 Y               Z
 ---------------- ---------------- ----------------
    -0.0000000000     0.0000000000     0.0000000000



                                Z-matrix (autoz)
                                -------- 

 Units are Angstrom for bonds and degrees for angles

      Type          Name      I     J     K     L     M      Value
      ----------- --------  ----- ----- ----- ----- ----- ----------
    1 Stretch                  1     2                       1.07794
    2 Stretch                  1     3                       0.97551
    3 Bend                     2     1     3               110.59992


            XYZ format geometry
            -------------------
     3
 geometry
 O                    -0.09131377    -0.07347162     0.00000000
 H                    -0.09131377     1.00446892     0.00000000
 H                     0.82182391    -0.41669598     0.00000000

 ==============================================================================
                                internuclear distances
 ------------------------------------------------------------------------------
       center one      |      center two      | atomic units |       a.u.
 ------------------------------------------------------------------------------
    3 H                |   1 O                |     1.84345  |     1.84345
 ------------------------------------------------------------------------------
                         number of included internuclear distances:          1
 ==============================================================================





 Summary of "ao basis" -> "" (spherical)
 ------------------------------------------------------------------------------
       Tag                 Description            Shells   Functions and Types
 ---------------- ------------------------------  ------  ---------------------
 *                         6-311++G**                 on all atoms 


                      Basis "ao basis" -> "ao basis" (spherical)
                      -----
  O (Oxygen)
  ----------
            Exponent  Coefficients 
       -------------- ---------------------------------------------------------
  1 S  8.58850000E+03  0.001895
  1 S  1.29723000E+03  0.014386
  1 S  2.99296000E+02  0.070732
  1 S  8.73771000E+01  0.240001
  1 S  2.56789000E+01  0.594797
  1 S  3.74004000E+00  0.280802

  2 S  4.21175000E+01  0.113889
  2 S  9.62837000E+00  0.920811
  2 S  2.85332000E+00 -0.003274

  3 P  4.21175000E+01  0.036511
  3 P  9.62837000E+00  0.237153
  3 P  2.85332000E+00  0.819702

  4 S  9.05661000E-01  1.000000

  5 P  9.05661000E-01  1.000000

  6 S  2.55611000E-01  1.000000

  7 P  2.55611000E-01  1.000000

  8 S  8.45000000E-02  1.000000

  9 P  8.45000000E-02  1.000000

 10 D  1.29200000E+00  1.000000

  H (Hydrogen)
  ------------
            Exponent  Coefficients 
       -------------- ---------------------------------------------------------
  1 S  3.38650000E+01  0.025494
  1 S  5.09479000E+00  0.190373
  1 S  1.15879000E+00  0.852161

  2 S  3.25840000E-01  1.000000

  3 S  1.02741000E-01  1.000000

  4 S  3.60000000E-02  1.000000

  5 P  7.50000000E-01  1.000000



 Summary of "ao basis" -> "ao basis" (spherical)
 ------------------------------------------------------------------------------
       Tag                 Description            Shells   Functions and Types
 ---------------- ------------------------------  ------  ---------------------
 O                         6-311++G**               10       22   5s4p1d
 H                         6-311++G**                5        7   4s1p



                            NWChem Direct MCSCF Module
                            --------------------------


                                        H2O


     -----------------------------------
       Basis functions:             36
       Inactive shells:              0
       Active shells:                8
       Active electrons:            10
       Symmetry:                    a       
       Multiplicity:                 1
       Orbital rotations:          224
     -----------------------------------

     -----------------------------------
       E2 extrapolation:             F
       Conjugacy:                    T
       Micro CI relax:               T
       Canonical orbitals:           T
       Maximum iterations:          40
       Converge threshold:    1.00E-04
       Conjugacy resets:            20
       Initial levelshift:        0.10
     -----------------------------------

 Loading old vectors from job with title :

H2O


   input molecular orbitals = ./h2o.mos
  output molecular orbtials = ./h2o.mos

       No. of determinants:          3136


  Starting Orbital Energies
   -20.568398    -1.334485    -0.725754    -0.583060    -0.528156    -0.030483
    -0.025922    -0.017000     0.072335     0.087402     0.236742     0.278453
     0.317473     0.485266     0.499352     0.629649     1.012301     1.077853
     1.472682     1.531295     1.649097     1.721377     1.816843     2.146738
     2.300391     2.763194     2.866800     3.373385     3.501754     3.588495
     4.039785     4.183553     5.322598     5.705960     6.049878    51.527612

  Orbital Symmetry Irreps
a    a    a    a    a    a    a    a    a    a    a    a    a    a    a   
a    a    a    a    a    a    a    a    a    a    a    a    a    a    a   
a    a    a    a    a    a   

 Integral file          = ./H2O.aoints.0
 Record size in doubles =  65536        No. of integs per rec  =  43688
 Max. records in memory =     10        Max. records in file   = 232527
 No. of bits per label  =      8        No. of bits per value  =     64


 #quartets = 2.216D+04 #integrals = 1.003D+05 #direct =  0.0% #cached =100.0%




          %%%%% MacroIteration   1 %%%%%


          Number of sigma calls:       15
                       o<<<<< (aa):             0.00
                       o<<<<< (bb):             0.00
                       o<<<<< (ab):             0.05
                       o<<<<< (total)           0.05
                       o<<<<< (aa) ff           0.00
                       o<<<<< (aa) gop          0.00
                       o<<<<< (aa) dot          0.00
                       o<<<<< (ab) str          0.00
                       o<<<<< (ab) gath         0.00
                       o<<<<< (ab) dotab        0.00
                       o<<<<< (ab) scat         0.00
                       o<<<<< (ab) sync         0.00
                       o<<<<< Density           0.00
                       o<<<<< Density one       0.00
                       o<<<<< Density two       0.00
                       o<<<<< Density ab        0.00
                       o<<<<< Spin adapt        0.20
                       o<<<<< Symm adapt        0.00

                       o<<<<< (ab) max sync:      0.00

           >>>| Valence CI:            -84.715262952326
           >>>| MCSCF energy:          -76.134989917779
           >>>| Gradient norm:          0.989043589D-02

                              ----- Line search ------

        step       energy         lsg     num-lsg   num-lsh   lsrat    time
      ------- ---------------- --------- --------- --------- ------- --------
       0.0000     -76.13498992 -9.60D-06  0.00D+00  0.00D+00 0.0D+00      0.4

          Number of sigma calls:       13
                       o<<<<< (aa):             0.00
                       o<<<<< (bb):             0.00
                       o<<<<< (ab):             0.04
                       o<<<<< (total)           0.04
                       o<<<<< (aa) ff           0.00
                       o<<<<< (aa) gop          0.00
                       o<<<<< (aa) dot          0.00
                       o<<<<< (ab) str          0.00
                       o<<<<< (ab) gath         0.00
                       o<<<<< (ab) dotab        0.00
                       o<<<<< (ab) scat         0.00
                       o<<<<< (ab) sync         0.00
                       o<<<<< Density           0.01
                       o<<<<< Density one       0.00
                       o<<<<< Density two       0.00
                       o<<<<< Density ab        0.01
                       o<<<<< Spin adapt        0.20
                       o<<<<< Symm adapt        0.00

                       o<<<<< (ab) max sync:      0.00
       1.0000     -76.13499486 -2.90D-07 -2.90D-07  9.31D-06 3.0D-02      0.7
     --- Orbitals canonicalized ---



          %%%%% MacroIteration   2 %%%%%


          Number of sigma calls:       11
                       o<<<<< (aa):             0.00
                       o<<<<< (bb):             0.00
                       o<<<<< (ab):             0.03
                       o<<<<< (total)           0.03
                       o<<<<< (aa) ff           0.00
                       o<<<<< (aa) gop          0.00
                       o<<<<< (aa) dot          0.00
                       o<<<<< (ab) str          0.00
                       o<<<<< (ab) gath         0.00
                       o<<<<< (ab) dotab        0.00
                       o<<<<< (ab) scat         0.00
                       o<<<<< (ab) sync         0.00
                       o<<<<< Density           0.01
                       o<<<<< Density one       0.00
                       o<<<<< Density two       0.00
                       o<<<<< Density ab        0.00
                       o<<<<< Spin adapt        0.14
                       o<<<<< Symm adapt        0.00

                       o<<<<< (ab) max sync:      0.00

           >>>| Valence CI:            -84.715267897626
           >>>| MCSCF energy:          -76.134994863080
           >>>| Gradient norm:          0.661296287D-03
     --- Warning:    1 Hessian diagonals < 0.05 ---
     --- Conjugacy reset ---

                              ----- Line search ------

        step       energy         lsg     num-lsg   num-lsh   lsrat    time
      ------- ---------------- --------- --------- --------- ------- --------
       0.0000     -76.13499486 -8.34D-08  0.00D+00  0.00D+00 0.0D+00      1.0

          Number of sigma calls:        9
                       o<<<<< (aa):             0.00
                       o<<<<< (bb):             0.00
                       o<<<<< (ab):             0.03
                       o<<<<< (total)           0.03
                       o<<<<< (aa) ff           0.00
                       o<<<<< (aa) gop          0.00
                       o<<<<< (aa) dot          0.00
                       o<<<<< (ab) str          0.00
                       o<<<<< (ab) gath         0.00
                       o<<<<< (ab) dotab        0.00
                       o<<<<< (ab) scat         0.00
                       o<<<<< (ab) sync         0.00
                       o<<<<< Density           0.00
                       o<<<<< Density one       0.00
                       o<<<<< Density two       0.00
                       o<<<<< Density ab        0.00
                       o<<<<< Spin adapt        0.15
                       o<<<<< Symm adapt        0.00

                       o<<<<< (ab) max sync:      0.00
       1.0000     -76.13499492 -2.70D-08 -2.70D-08  5.64D-08 3.2D-01      1.2

          Number of sigma calls:        9
                       o<<<<< (aa):             0.00
                       o<<<<< (bb):             0.00
                       o<<<<< (ab):             0.02
                       o<<<<< (total)           0.02
                       o<<<<< (aa) ff           0.00
                       o<<<<< (aa) gop          0.00
                       o<<<<< (aa) dot          0.00
                       o<<<<< (ab) str          0.00
                       o<<<<< (ab) gath         0.00
                       o<<<<< (ab) dotab        0.00
                       o<<<<< (ab) scat         0.00
                       o<<<<< (ab) sync         0.00
                       o<<<<< Density           0.00
                       o<<<<< Density one       0.00
                       o<<<<< Density two       0.00
                       o<<<<< Density ab        0.00
                       o<<<<< Spin adapt        0.15
                       o<<<<< Symm adapt        0.00

                       o<<<<< (ab) max sync:      0.00
       1.4777     -76.13499492  2.84D-11  2.70D-11  5.65D-08 3.4D-04      1.4



          %%%%% MacroIteration   3 %%%%%


          Number of sigma calls:        1
                       o<<<<< (aa):             0.00
                       o<<<<< (bb):             0.00
                       o<<<<< (ab):             0.00
                       o<<<<< (total)           0.00
                       o<<<<< (aa) ff           0.00
                       o<<<<< (aa) gop          0.00
                       o<<<<< (aa) dot          0.00
                       o<<<<< (ab) str          0.00
                       o<<<<< (ab) gath         0.00
                       o<<<<< (ab) dotab        0.00
                       o<<<<< (ab) scat         0.00
                       o<<<<< (ab) sync         0.00
                       o<<<<< Density           0.00
                       o<<<<< Density one       0.00
                       o<<<<< Density two       0.00
                       o<<<<< Density ab        0.00
                       o<<<<< Spin adapt        0.00
                       o<<<<< Symm adapt        0.00

                       o<<<<< (ab) max sync:      0.00

           >>>| Valence CI:            -84.715267959242
           >>>| MCSCF energy:          -76.134994924695
           >>>| Gradient norm:          0.937209600D-04




     ==============================
            MCSCF Converged
     ==============================



          Canonical Eigenvalues

              1      
    1  -20.5687
    2   -1.3336
    3   -0.7246
    4   -0.5826
    5   -0.5280
    6   -0.0307
    7   -0.0259
    8   -0.0170
    9    0.0724
   10    0.0874
   11    0.2367
   12    0.2785
   13    0.3175
   14    0.4850
   15    0.4994
   16    0.6303
   17    1.0127
   18    1.0798
   19    1.4725
   20    1.5321
   21    1.6495
   22    1.7209
   23    1.8144
   24    2.1418
   25    2.2997
   26    2.7637
   27    2.8665
   28    3.3703
   29    3.5012
   30    3.5856
   31    4.0374
   32    4.1830
   33    5.3231
   34    5.7024
   35    6.0461
   36   51.5265


          Converged CI vector

   Index           Coefficient          Config. Occupation
         1          0.97164680          1  2  3  4  5  1  2  3  4  5
        22         -0.07570816          1  2  3  4  5  1  2  3  4  8
         3         -0.04405041          1  2  3  4  5  1  2  3  5  6
         8         -0.02642663          1  2  3  4  5  1  2  3  5  7
        27          0.02056481          1  2  3  4  5  1  2  3  6  8
         4         -0.02666503          1  2  3  4  5  1  2  4  5  6
         9          0.03851162          1  2  3  4  5  1  2  4  5  7
        38         -0.02262222          1  2  3  4  5  1  2  4  7  8
      1177         -0.07570816          1  2  3  4  8  1  2  3  4  5
      1198         -0.05500443          1  2  3  4  8  1  2  3  4  8
      1179         -0.02612080          1  2  3  4  8  1  2  3  5  6
      1180         -0.02156993          1  2  3  4  8  1  2  4  5  6
      1185          0.03080718          1  2  3  4  8  1  2  4  5  7
       113         -0.04405041          1  2  3  5  6  1  2  3  4  5
       134         -0.02612080          1  2  3  5  6  1  2  3  4  8
       115         -0.04792468          1  2  3  5  6  1  2  3  5  6
       116         -0.03637960          1  2  3  5  6  1  2  4  5  6
       121          0.02122484          1  2  3  5  6  1  2  4  5  7
       117          0.02130666          1  2  3  5  6  1  3  4  5  6
       393         -0.02642663          1  2  3  5  7  1  2  3  4  5
       400         -0.02467742          1  2  3  5  7  1  2  3  5  7
       401          0.02671626          1  2  3  5  7  1  2  4  5  7
      1457          0.02056481          1  2  3  6  8  1  2  3  4  5
       169         -0.02666503          1  2  4  5  6  1  2  3  4  5
       190         -0.02156993          1  2  4  5  6  1  2  3  4  8
       171         -0.03637960          1  2  4  5  6  1  2  3  5  6
       172         -0.04390489          1  2  4  5  6  1  2  4  5  6
       173          0.02177024          1  2  4  5  6  1  3  4  5  6
       449          0.03851162          1  2  4  5  7  1  2  3  4  5
       470          0.03080718          1  2  4  5  7  1  2  3  4  8
       451          0.02122484          1  2  4  5  7  1  2  3  5  6
       456          0.02671626          1  2  4  5  7  1  2  3  5  7
       457         -0.05286310          1  2  4  5  7  1  2  4  5  7
       458         -0.02225520          1  2  4  5  7  1  3  4  5  7
      2073         -0.02262222          1  2  4  7  8  1  2  3  4  5
       227          0.02130666          1  3  4  5  6  1  2  3  5  6
       228          0.02177024          1  3  4  5  6  1  2  4  5  6
       229         -0.02435020          1  3  4  5  6  1  3  4  5  6
       513         -0.02225520          1  3  4  5  7  1  2  4  5  7
       514         -0.02186052          1  3  4  5  7  1  3  4  5  7

          Number of sigma calls:        1
                       o<<<<< (aa):             0.00
                       o<<<<< (bb):             0.00
                       o<<<<< (ab):             0.00
                       o<<<<< (total)           0.00
                       o<<<<< (aa) ff           0.00
                       o<<<<< (aa) gop          0.00
                       o<<<<< (aa) dot          0.00
                       o<<<<< (ab) str          0.00
                       o<<<<< (ab) gath         0.00
                       o<<<<< (ab) dotab        0.00
                       o<<<<< (ab) scat         0.00
                       o<<<<< (ab) sync         0.00
                       o<<<<< Density           0.01
                       o<<<<< Density one       0.00
                       o<<<<< Density two       0.00
                       o<<<<< Density ab        0.01
                       o<<<<< Spin adapt        0.00
                       o<<<<< Symm adapt        0.00

                       o<<<<< (ab) max sync:      0.00



          Natural orbital occupation numbers

              1      
    1    2.0000
    2    1.9987
    3    1.9797
    4    1.9756
    5    1.9690
    6    0.0320
    7    0.0251
    8    0.0199


          Number of sigma calls:       15
                       o<<<<< (aa):             0.00
                       o<<<<< (bb):             0.00
                       o<<<<< (ab):             0.03
                       o<<<<< (total)           0.04
                       o<<<<< (aa) ff           0.00
                       o<<<<< (aa) gop          0.00
                       o<<<<< (aa) dot          0.00
                       o<<<<< (ab) str          0.00
                       o<<<<< (ab) gath         0.00
                       o<<<<< (ab) dotab        0.00
                       o<<<<< (ab) scat         0.00
                       o<<<<< (ab) sync         0.00
                       o<<<<< Density           0.01
                       o<<<<< Density one       0.00
                       o<<<<< Density two       0.00
                       o<<<<< Density ab        0.01
                       o<<<<< Spin adapt        0.15
                       o<<<<< Symm adapt        0.00

                       o<<<<< (ab) max sync:      0.00


       Final MCSCF results 
       ------------------- 

       Total MCSCF energy =    -76.134994924695
            Gradient norm =      9.4D-05

    CPU time for solution =      1.6s
   Wall time for solution =      3.2s



                        Analysis of MCSCF natural orbitals
                        ----------------------------------

 Vector    1  Occ=1.999990D+00  E=-2.056874D+01  Symmetry=a
              MO Center= -9.1D-02, -7.3D-02,  6.9D-13, r^2= 1.6D-02
   Bfn.  Coefficient  Atom+Function         Bfn.  Coefficient  Atom+Function  
  ----- ------------  ---------------      ----- ------------  ---------------
     1      0.559368  1 O  s                  2      0.486785  1 O  s          

 Vector    2  Occ=1.998720D+00  E=-1.333647D+00  Symmetry=a
              MO Center= -2.9D-01, -2.1D-01, -1.4D-09, r^2= 4.3D-01
   Bfn.  Coefficient  Atom+Function         Bfn.  Coefficient  Atom+Function  
  ----- ------------  ---------------      ----- ------------  ---------------
     6      0.563477  1 O  s                 10      0.487205  1 O  s          
     2     -0.152426  1 O  s          

 Vector    3  Occ=1.979717D+00  E=-7.246333D-01  Symmetry=a
              MO Center= -7.3D-02, -6.4D-02,  1.4D-09, r^2= 7.1D-01
   Bfn.  Coefficient  Atom+Function         Bfn.  Coefficient  Atom+Function  
  ----- ------------  ---------------      ----- ------------  ---------------
     9      0.436389  1 O  pz                13      0.408127  1 O  pz         
     5      0.289206  1 O  pz         

 Vector    4  Occ=1.975576D+00  E=-5.826356D-01  Symmetry=a
              MO Center=  3.3D-01, -1.9D-01,  5.1D-12, r^2= 6.1D-01
   Bfn.  Coefficient  Atom+Function         Bfn.  Coefficient  Atom+Function  
  ----- ------------  ---------------      ----- ------------  ---------------
     7      0.348954  1 O  px                31      0.273431  3 H  s          
    11      0.236333  1 O  px                 3      0.231182  1 O  px         
    30      0.190028  3 H  s          

 Vector    5  Occ=1.969034D+00  E=-5.280281D-01  Symmetry=a
              MO Center= -5.0D-02,  4.1D-01,  2.0D-11, r^2= 6.7D-01
   Bfn.  Coefficient  Atom+Function         Bfn.  Coefficient  Atom+Function  
  ----- ------------  ---------------      ----- ------------  ---------------
     8      0.342351  1 O  py                24      0.279829  2 H  s          
    12      0.231966  1 O  py                 4      0.223844  1 O  py         
    23      0.176151  2 H  s          

 Vector    6  Occ=3.197978D-02  E=-3.071580D-02  Symmetry=a
              MO Center= -3.5D-02,  6.0D-01,  1.1D-10, r^2= 6.9D-01
   Bfn.  Coefficient  Atom+Function         Bfn.  Coefficient  Atom+Function  
  ----- ------------  ---------------      ----- ------------  ---------------
    24     -0.517424  2 H  s                  8      0.502095  1 O  py         
     6      0.401314  1 O  s                  4      0.389974  1 O  py         
    23     -0.271254  2 H  s          

 Vector    7  Occ=2.512257D-02  E=-2.593276D-02  Symmetry=a
              MO Center=  4.9D-01, -2.5D-01,  1.3D-10, r^2= 6.8D-01
   Bfn.  Coefficient  Atom+Function         Bfn.  Coefficient  Atom+Function  
  ----- ------------  ---------------      ----- ------------  ---------------
    31     -0.552994  3 H  s                  7      0.505818  1 O  px         
     3      0.415408  1 O  px                 6      0.373539  1 O  s          
    30     -0.288124  3 H  s                  8     -0.174936  1 O  py         

 Vector    8  Occ=1.986038D-02  E=-1.699731D-02  Symmetry=a
              MO Center= -5.6D-02, -5.1D-02,  1.7D-09, r^2= 1.4D+00
   Bfn.  Coefficient  Atom+Function         Bfn.  Coefficient  Atom+Function  
  ----- ------------  ---------------      ----- ------------  ---------------
    13      0.653931  1 O  pz                 5     -0.504340  1 O  pz         
     9     -0.462381  1 O  pz                17      0.283138  1 O  pz         

 Vector    9  Occ=0.000000D+00  E= 7.238912D-02  Symmetry=a
              MO Center=  5.2D-01,  4.5D-01, -7.8D-10, r^2= 1.1D+01
   Bfn.  Coefficient  Atom+Function         Bfn.  Coefficient  Atom+Function  
  ----- ------------  ---------------      ----- ------------  ---------------
    26      1.018454  2 H  s                 33      0.964026  3 H  s          
    14     -0.715774  1 O  s                 25     -0.441614  2 H  s          
    32     -0.355148  3 H  s                 10      0.247828  1 O  s          

 Vector   10  Occ=0.000000D+00  E= 8.739140D-02  Symmetry=a
              MO Center=  5.4D-01,  3.5D-01, -7.6D-12, r^2= 1.4D+01
   Bfn.  Coefficient  Atom+Function         Bfn.  Coefficient  Atom+Function  
  ----- ------------  ---------------      ----- ------------  ---------------
    33     -2.543385  3 H  s                 26      2.509308  2 H  s          
    25     -0.499578  2 H  s                 32      0.426470  3 H  s          
    16     -0.296028  1 O  py                15      0.232376  1 O  px         

 Vector   11  Occ=0.000000D+00  E= 2.367089D-01  Symmetry=a
              MO Center= -3.2D-01, -1.6D-01,  5.9D-10, r^2= 5.5D+00
   Bfn.  Coefficient  Atom+Function         Bfn.  Coefficient  Atom+Function  
  ----- ------------  ---------------      ----- ------------  ---------------
    14      3.010563  1 O  s                 32     -2.740758  3 H  s          
    25     -2.100025  2 H  s                 15      1.939395  1 O  px         
    16      1.106349  1 O  py                11     -0.339595  1 O  px         
    33      0.300911  3 H  s                 10      0.253608  1 O  s          
    12     -0.242110  1 O  py                26      0.223872  2 H  s          

 Vector   12  Occ=0.000000D+00  E= 2.784843D-01  Symmetry=a
              MO Center= -4.1D-01, -3.2D-01, -4.7D-13, r^2= 5.8D+00
   Bfn.  Coefficient  Atom+Function         Bfn.  Coefficient  Atom+Function  
  ----- ------------  ---------------      ----- ------------  ---------------
    32      3.204272  3 H  s                 25     -2.838042  2 H  s          
    16      2.738360  1 O  py                15     -1.914506  1 O  px         
    33      0.716900  3 H  s                 26     -0.629191  2 H  s          
    14     -0.463279  1 O  s                 12     -0.327063  1 O  py         
    31     -0.254349  3 H  s                 24      0.223854  2 H  s          

 Vector   13  Occ=0.000000D+00  E= 3.175224D-01  Symmetry=a
              MO Center=  1.2D-01,  6.4D-02, -4.0D-09, r^2= 5.4D+00
   Bfn.  Coefficient  Atom+Function         Bfn.  Coefficient  Atom+Function  
  ----- ------------  ---------------      ----- ------------  ---------------
    14      7.519965  1 O  s                 32     -3.904530  3 H  s          
    25     -3.347943  2 H  s                 15      1.547435  1 O  px         
    10     -1.148573  1 O  s                 16      0.857699  1 O  py         
    33     -0.395695  3 H  s                 31      0.232098  3 H  s          
    24      0.196204  2 H  s          

 Vector   14  Occ=0.000000D+00  E= 4.850283D-01  Symmetry=a
              MO Center= -4.0D-02,  1.2D+00, -5.5D-12, r^2= 5.3D+00
   Bfn.  Coefficient  Atom+Function         Bfn.  Coefficient  Atom+Function  
  ----- ------------  ---------------      ----- ------------  ---------------
    25      3.661905  2 H  s                 32     -1.870004  3 H  s          
    26     -1.769260  2 H  s                 24     -1.356565  2 H  s          
    33      1.166526  3 H  s                 31      0.532565  3 H  s          
    16     -0.401667  1 O  py                14     -0.242809  1 O  s          
    10     -0.185151  1 O  s                 15      0.175319  1 O  px         

 Vector   15  Occ=0.000000D+00  E= 4.994018D-01  Symmetry=a
              MO Center=  1.1D+00, -4.3D-01, -2.6D-11, r^2= 4.7D+00
   Bfn.  Coefficient  Atom+Function         Bfn.  Coefficient  Atom+Function  
  ----- ------------  ---------------      ----- ------------  ---------------
    32      3.873670  3 H  s                 14     -1.549909  1 O  s          
    31     -1.423133  3 H  s                 33     -1.259461  3 H  s          
    25      1.162262  2 H  s                 24     -0.577162  2 H  s          
    15     -0.450533  1 O  px                10     -0.282832  1 O  s          
     7      0.157929  1 O  px         

 Vector   16  Occ=0.000000D+00  E= 6.302808D-01  Symmetry=a
              MO Center= -8.6D-02, -7.0D-02,  3.4D-09, r^2= 5.4D+00
   Bfn.  Coefficient  Atom+Function         Bfn.  Coefficient  Atom+Function  
  ----- ------------  ---------------      ----- ------------  ---------------
    17     -1.446174  1 O  pz                13      1.414544  1 O  pz         
     9     -0.434814  1 O  pz         

 Vector   17  Occ=0.000000D+00  E= 1.012715D+00  Symmetry=a
              MO Center= -1.7D-01,  1.4D-01,  4.3D-10, r^2= 2.5D+00
   Bfn.  Coefficient  Atom+Function         Bfn.  Coefficient  Atom+Function  
  ----- ------------  ---------------      ----- ------------  ---------------
    14      2.812972  1 O  s                 32     -2.481839  3 H  s          
    11     -2.226731  1 O  px                31      2.074663  3 H  s          
    10     -1.782870  1 O  s                 15      1.737362  1 O  px         
    25     -1.104604  2 H  s                 24      0.742224  2 H  s          
     7      0.445795  1 O  px                33     -0.268155  3 H  s          

 Vector   18  Occ=0.000000D+00  E= 1.079815D+00  Symmetry=a
              MO Center= -1.1D-01, -3.3D-01,  5.2D-11, r^2= 2.6D+00
   Bfn.  Coefficient  Atom+Function         Bfn.  Coefficient  Atom+Function  
  ----- ------------  ---------------      ----- ------------  ---------------
    12      2.403478  1 O  py                16     -1.796147  1 O  py         
    25      1.702670  2 H  s                 24     -1.627259  2 H  s          
    14     -0.863836  1 O  s                 11     -0.679677  1 O  px         
    31      0.678173  3 H  s                 33     -0.596336  3 H  s          
    26      0.552481  2 H  s                  8     -0.538804  1 O  py         


 Wrote Lagrangian and 1- and 2-particle density matrices to ./H2O.mcpdm


     Multipole analysis of the density
     ---------------------------------

     L   x y z        total        nuclear
     -   - - -        -----        -------
     0   0 0 0     -0.000000     10.000000

     1   1 0 0      0.646812     -0.000000
     1   0 1 0      0.483507      0.000000
     1   0 0 1     -0.000000      0.000000

     2   2 0 0     -4.381259      2.679864
     2   1 1 0     -0.883844     -1.358793
     2   1 0 1      0.000000      0.000000
     2   0 2 0     -3.495996      4.377332
     2   0 1 1      0.000000      0.000000
     2   0 0 2     -5.915508      0.000000


  Mulliken analysis of the total density
  --------------------------------------

    Atom       Charge   Shell Charges
 -----------   ------   -------------------------------------------------------
    1 O    8     8.51   1.08  0.91  0.94  1.00  2.04  0.81  1.54 -0.02  0.19  0.01
    2 H    1     0.74   0.22  0.41  0.04  0.01  0.06
    3 H    1     0.75   0.26  0.40  0.02  0.01  0.07

    Mulliken analysis of the active space density
    ---------------------------------------------

    Atom       Charge   Shell Charges
 -----------   ------   -------------------------------------------------------
    1 O    8     8.51   1.08  0.91  0.94  1.00  2.04  0.81  1.54 -0.02  0.19  0.01
    2 H    1     0.74   0.22  0.41  0.04  0.01  0.06
    3 H    1     0.75   0.26  0.40  0.02  0.01  0.07

 Parallel integral file used       3 records with       0 large values


 Task  times  cpu:        1.6s     wall:        3.2s


                                NWChem Input Module
                                -------------------


                                 NWChem SCF Module
                                 -----------------


                                        H2O



  ao basis        = "ao basis"
  functions       =    36
  atoms           =     3
  closed shells   =     5
  open shells     =     0
  charge          =   0.00
  wavefunction    = RHF 
  input vectors   = ./h2o.mos
  output vectors  = ./h2o-trash.mos
  use symmetry    = F
  symmetry adapt  = F


 Summary of "ao basis" -> "ao basis" (spherical)
 ------------------------------------------------------------------------------
       Tag                 Description            Shells   Functions and Types
 ---------------- ------------------------------  ------  ---------------------
 O                         6-311++G**               10       22   5s4p1d
 H                         6-311++G**                5        7   4s1p



 Forming initial guess at       3.2s


 Loading old vectors from job with title :

H2O


 Starting SCF solution at       3.2s



 ----------------------------------------------
         Quadratically convergent ROHF

 Convergence threshold     :          1.000E-04
 Maximum no. of iterations :           30
 Final Fock-matrix accuracy:          1.000E-07
 ----------------------------------------------


 Integral file          = ./H2O.aoints.0
 Record size in doubles =  65536        No. of integs per rec  =  43688
 Max. records in memory =     10        Max. records in file   = 232534
 No. of bits per label  =      8        No. of bits per value  =     64


 #quartets = 2.216D+04 #integrals = 1.002D+05 #direct =  0.0% #cached =100.0%



       Final RHF  results 
       ------------------ 

         Total SCF energy =    -76.033840998520
      One-electron energy =   -121.872503175578
      Two-electron energy =     37.258389142510
 Nuclear repulsion energy =      8.580273034547

        Time for solution =      0.0s


             Final eigenvalues
             -----------------

              1      
    1  -20.5687
    2   -1.3336
    3   -0.7246
    4   -0.5826
    5   -0.5280
    6   -0.0307
    7   -0.0259
    8   -0.0170
    9    0.0724
   10    0.0874
   11    0.2367
   12    0.2785
   13    0.3175
   14    0.4850
   15    0.4994

                       ROHF Final Molecular Orbital Analysis
                       -------------------------------------

 Vector    2  Occ=2.000000D+00  E=-1.333647D+00
              MO Center= -2.9D-01, -2.1D-01, -1.4D-09, r^2= 4.3D-01
   Bfn.  Coefficient  Atom+Function         Bfn.  Coefficient  Atom+Function  
  ----- ------------  ---------------      ----- ------------  ---------------
     6      0.563477  1 O  s                 10      0.487205  1 O  s          
     2     -0.152426  1 O  s          

 Vector    3  Occ=2.000000D+00  E=-7.246333D-01
              MO Center= -7.3D-02, -6.4D-02,  1.4D-09, r^2= 7.1D-01
   Bfn.  Coefficient  Atom+Function         Bfn.  Coefficient  Atom+Function  
  ----- ------------  ---------------      ----- ------------  ---------------
     9      0.436389  1 O  pz                13      0.408127  1 O  pz         
     5      0.289206  1 O  pz         

 Vector    4  Occ=2.000000D+00  E=-5.826356D-01
              MO Center=  3.3D-01, -1.9D-01,  5.1D-12, r^2= 6.1D-01
   Bfn.  Coefficient  Atom+Function         Bfn.  Coefficient  Atom+Function  
  ----- ------------  ---------------      ----- ------------  ---------------
     7      0.348954  1 O  px                31      0.273431  3 H  s          
    11      0.236333  1 O  px                 3      0.231182  1 O  px         
    30      0.190028  3 H  s          

 Vector    5  Occ=2.000000D+00  E=-5.280281D-01
              MO Center= -5.0D-02,  4.1D-01,  2.0D-11, r^2= 6.7D-01
   Bfn.  Coefficient  Atom+Function         Bfn.  Coefficient  Atom+Function  
  ----- ------------  ---------------      ----- ------------  ---------------
     8      0.342351  1 O  py                24      0.279829  2 H  s          
    12      0.231966  1 O  py                 4      0.223844  1 O  py         
    23      0.176151  2 H  s          

 Vector    6  Occ=0.000000D+00  E=-3.071580D-02
              MO Center= -3.5D-02,  6.0D-01,  1.1D-10, r^2= 6.9D-01
   Bfn.  Coefficient  Atom+Function         Bfn.  Coefficient  Atom+Function  
  ----- ------------  ---------------      ----- ------------  ---------------
    24     -0.517424  2 H  s                  8      0.502095  1 O  py         
     6      0.401314  1 O  s                  4      0.389974  1 O  py         
    23     -0.271254  2 H  s          

 Vector    7  Occ=0.000000D+00  E=-2.593276D-02
              MO Center=  4.9D-01, -2.5D-01,  1.3D-10, r^2= 6.8D-01
   Bfn.  Coefficient  Atom+Function         Bfn.  Coefficient  Atom+Function  
  ----- ------------  ---------------      ----- ------------  ---------------
    31     -0.552994  3 H  s                  7      0.505818  1 O  px         
     3      0.415408  1 O  px                 6      0.373539  1 O  s          
    30     -0.288124  3 H  s                  8     -0.174936  1 O  py         

 Vector    8  Occ=0.000000D+00  E=-1.699731D-02
              MO Center= -5.6D-02, -5.1D-02,  1.7D-09, r^2= 1.4D+00
   Bfn.  Coefficient  Atom+Function         Bfn.  Coefficient  Atom+Function  
  ----- ------------  ---------------      ----- ------------  ---------------
    13      0.653931  1 O  pz                 5     -0.504340  1 O  pz         
     9     -0.462381  1 O  pz                17      0.283138  1 O  pz         

 Vector    9  Occ=0.000000D+00  E= 7.238912D-02
              MO Center=  5.2D-01,  4.5D-01, -7.8D-10, r^2= 1.1D+01
   Bfn.  Coefficient  Atom+Function         Bfn.  Coefficient  Atom+Function  
  ----- ------------  ---------------      ----- ------------  ---------------
    26      1.018454  2 H  s                 33      0.964026  3 H  s          
    14     -0.715774  1 O  s                 25     -0.441614  2 H  s          
    32     -0.355148  3 H  s                 10      0.247828  1 O  s          

 Vector   10  Occ=0.000000D+00  E= 8.739140D-02
              MO Center=  5.4D-01,  3.5D-01, -7.6D-12, r^2= 1.4D+01
   Bfn.  Coefficient  Atom+Function         Bfn.  Coefficient  Atom+Function  
  ----- ------------  ---------------      ----- ------------  ---------------
    33     -2.543385  3 H  s                 26      2.509308  2 H  s          
    25     -0.499578  2 H  s                 32      0.426470  3 H  s          
    16     -0.296028  1 O  py                15      0.232376  1 O  px         

 Vector   11  Occ=0.000000D+00  E= 2.367089D-01
              MO Center= -3.2D-01, -1.6D-01,  5.9D-10, r^2= 5.5D+00
   Bfn.  Coefficient  Atom+Function         Bfn.  Coefficient  Atom+Function  
  ----- ------------  ---------------      ----- ------------  ---------------
    14      3.010563  1 O  s                 32     -2.740758  3 H  s          
    25     -2.100025  2 H  s                 15      1.939395  1 O  px         
    16      1.106349  1 O  py                11     -0.339595  1 O  px         
    33      0.300911  3 H  s                 10      0.253608  1 O  s          
    12     -0.242110  1 O  py                26      0.223872  2 H  s          

 Vector   12  Occ=0.000000D+00  E= 2.784843D-01
              MO Center= -4.1D-01, -3.2D-01, -4.7D-13, r^2= 5.8D+00
   Bfn.  Coefficient  Atom+Function         Bfn.  Coefficient  Atom+Function  
  ----- ------------  ---------------      ----- ------------  ---------------
    32      3.204272  3 H  s                 25     -2.838042  2 H  s          
    16      2.738360  1 O  py                15     -1.914506  1 O  px         
    33      0.716900  3 H  s                 26     -0.629191  2 H  s          
    14     -0.463279  1 O  s                 12     -0.327063  1 O  py         
    31     -0.254349  3 H  s                 24      0.223854  2 H  s          

 Vector   13  Occ=0.000000D+00  E= 3.175224D-01
              MO Center=  1.2D-01,  6.4D-02, -4.0D-09, r^2= 5.4D+00
   Bfn.  Coefficient  Atom+Function         Bfn.  Coefficient  Atom+Function  
  ----- ------------  ---------------      ----- ------------  ---------------
    14      7.519965  1 O  s                 32     -3.904530  3 H  s          
    25     -3.347943  2 H  s                 15      1.547435  1 O  px         
    10     -1.148573  1 O  s                 16      0.857699  1 O  py         
    33     -0.395695  3 H  s                 31      0.232098  3 H  s          
    24      0.196204  2 H  s          

 Vector   14  Occ=0.000000D+00  E= 4.850283D-01
              MO Center= -4.0D-02,  1.2D+00, -5.5D-12, r^2= 5.3D+00
   Bfn.  Coefficient  Atom+Function         Bfn.  Coefficient  Atom+Function  
  ----- ------------  ---------------      ----- ------------  ---------------
    25      3.661905  2 H  s                 32     -1.870004  3 H  s          
    26     -1.769260  2 H  s                 24     -1.356565  2 H  s          
    33      1.166526  3 H  s                 31      0.532565  3 H  s          
    16     -0.401667  1 O  py                14     -0.242809  1 O  s          
    10     -0.185151  1 O  s                 15      0.175319  1 O  px         

 Vector   15  Occ=0.000000D+00  E= 4.994018D-01
              MO Center=  1.1D+00, -4.3D-01, -2.6D-11, r^2= 4.7D+00
   Bfn.  Coefficient  Atom+Function         Bfn.  Coefficient  Atom+Function  
  ----- ------------  ---------------      ----- ------------  ---------------
    32      3.873670  3 H  s                 14     -1.549909  1 O  s          
    31     -1.423133  3 H  s                 33     -1.259461  3 H  s          
    25      1.162262  2 H  s                 24     -0.577162  2 H  s          
    15     -0.450533  1 O  px                10     -0.282832  1 O  s          
     7      0.157929  1 O  px         

 Vector   16  Occ=0.000000D+00  E= 6.302808D-01
              MO Center= -8.6D-02, -7.0D-02,  3.4D-09, r^2= 5.4D+00
   Bfn.  Coefficient  Atom+Function         Bfn.  Coefficient  Atom+Function  
  ----- ------------  ---------------      ----- ------------  ---------------
    17     -1.446174  1 O  pz                13      1.414544  1 O  pz         
     9     -0.434814  1 O  pz         


 center of mass
 --------------
 x =  -0.07599894 y =  -0.06114922 z =   0.00000000

 moments of inertia (a.u.)
 ------------------
           4.497149298676           1.263081840162           0.000000000000
           1.263081840162           2.833002082974           0.000000000000
           0.000000000000           0.000000000000           7.330151381650

  Mulliken analysis of the total density
  --------------------------------------

    Atom       Charge   Shell Charges
 -----------   ------   -------------------------------------------------------
    1 O    8     8.52   1.08  0.91  0.93  1.00  2.05  0.81  1.55 -0.02  0.19  0.01
    2 H    1     0.74   0.22  0.41  0.04  0.01  0.06
    3 H    1     0.75   0.26  0.39  0.02  0.01  0.07

       Multipole analysis of the density wrt the origin
       ------------------------------------------------

     L   x y z        total         open         nuclear
     -   - - -        -----         ----         -------
     0   0 0 0     -0.000000      0.000000     10.000000

     1   1 0 0      0.656717      0.000000     -0.000000
     1   0 1 0      0.493733      0.000000      0.000000
     1   0 0 1     -0.000000      0.000000      0.000000

     2   2 0 0     -4.354696      0.000000      2.679864
     2   1 1 0     -0.893332      0.000000     -1.358793
     2   1 0 1      0.000000      0.000000      0.000000
     2   0 2 0     -3.454514      0.000000      4.377332
     2   0 1 1      0.000000      0.000000      0.000000
     2   0 0 2     -5.887390      0.000000      0.000000


 Parallel integral file used       3 records with       0 large values

                   NWChem Extensible Many-Electron Theory Module
                   ---------------------------------------------

              ======================================================
                   This portion of the program was automatically
                  generated by a Tensor Contraction Engine (TCE).
                  The development of this portion of the program
                 and TCE was supported by US Department of Energy,
                Office of Science, Office of Basic Energy Science.
                      TCE is a product of Battelle and PNNL.
              Please cite: S.Hirata, J.Phys.Chem.A 107, 9887 (2003).
              ======================================================

                                        H2O


            General Information
            -------------------
      Number of processors :     1
         Wavefunction type : Restricted Hartree-Fock
          No. of electrons :    10
           Alpha electrons :     5
            Beta electrons :     5
           No. of orbitals :    72
            Alpha orbitals :    36
             Beta orbitals :    36
        Alpha frozen cores :     0
         Beta frozen cores :     0
     Alpha frozen virtuals :     0
      Beta frozen virtuals :     0
         Spin multiplicity : singlet 
    Number of AO functions :    36
       Number of AO shells :    20
        Use of symmetry is : off
      Symmetry adaption is : off
         Schwarz screening : 0.10D-09

          Correlation Information
          -----------------------
          Calculation type : Coupled-cluster singles & doubles                           
   Perturbative correction : none                                                        
            Max iterations :      300
        Residual threshold : 0.10D-06
     T(0) DIIS level shift : 0.00D+00
     L(0) DIIS level shift : 0.00D+00
     T(1) DIIS level shift : 0.00D+00
     L(1) DIIS level shift : 0.00D+00
     T(R) DIIS level shift : 0.00D+00
     T(I) DIIS level shift : 0.00D+00
   CC-T/L Amplitude update :  5-th order DIIS
                I/O scheme : Global Array Library
        L-threshold :  0.10D-06
        EOM-threshold :  0.10D-06
 no EOMCCSD initial starts read in
 TCE RESTART OPTIONS
 READ_INT:   F
 WRITE_INT:  F
 READ_TA:    F
 WRITE_TA:   F
 READ_XA:    F
 WRITE_XA:   F
 READ_IN3:   F
 WRITE_IN3:  F
 SLICE:      F
 D4D5:       F
 quantumc:   F
 qrotation:  F
 pwtce:      F
 qducc:      T
 nacto:                         0
 nrotv:                         0
 nrot:                          0

            Memory Information
            ------------------
          Available GA space size is    1610611440 doubles
          Available MA space size is    1610610740 doubles

 Maximum block size        32 doubles

 tile_dim =     31

 Block   Spin    Irrep     Size     Offset   Alpha
 -------------------------------------------------
   1    alpha     a      5 doubles       0       1
   2    beta      a      5 doubles       5       1
   3    alpha     a     31 doubles      10       3
   4    beta      a     31 doubles      41       3

 Global array virtual files algorithm will be used

 Parallel file system coherency ......... OK

 Integral file          = ./H2O.aoints.0
 Record size in doubles =  65536        No. of integs per rec  =  43688
 Max. records in memory =     10        Max. records in file   = 232534
 No. of bits per label  =      8        No. of bits per value  =     64


 #quartets = 2.216D+04 #integrals = 1.003D+05 #direct =  0.0% #cached =100.0%


 Fock matrix recomputed
 1-e file size   =             1296
 1-e file name   = ./H2O.f1
 Cpu & wall time / sec            0.0            0.0
 4-electron integrals stored in orbital form

 v2    file size   =          1125026
 4-index algorithm nr.  13 is used
 imaxsize =       30
 imaxsize ichop =        0
 Cpu & wall time / sec            0.2            0.2
 T1-number-of-tasks                    1

 t1 file size   =              155
 t1 file name   = ./H2O.t1
 t1 file handle =       -998
 T2-number-of-boxes                    2

 t2 file size   =            48050
 t2 file name   = ./H2O.t2
 t2 file handle =       -996
CCSD iterations
 ---------------------------------------------------------
 Iter          Residuum       Correlation     Cpu    Wall 
 ---------------------------------------------------------
NEW TASK SCHEDULING
CCSD_T1_NTS --- OK
CCSD_T2_NTS --- OK
    1   1.0526405864490  -0.4121434138315     0.0     0.0
    2   1.8201304604062   0.0486140505197     0.0     0.0
    3   3.3187329295556  -0.7908023471399     0.0     0.0
    4   6.4592742095574   0.7075096277567     0.0     0.0
    5   9.0875650286801  -1.8950150506896     0.0     0.0
 MICROCYCLE DIIS UPDATE:                    5                    5
    6   0.0573592077098  -0.2526534903656     0.0     0.0
    7   0.0643194373475  -0.2472162500484     0.0     0.0
    8   0.1132496893848  -0.2544648992394     0.0     0.0
    9   0.2194005751923  -0.2341303642088     0.0     0.0
   10   0.4560534897383  -0.1978136452482     0.0     0.0
 MICROCYCLE DIIS UPDATE:                   10                    5
   11   0.0055697215867  -0.2528201704739     0.0     0.0
   12   0.0039570143188  -0.2532921298167     0.0     0.0
   13   0.0061393264689  -0.2526010184642     0.0     0.0
   14   0.0118693605916  -0.2536789751311     0.0     0.0
   15   0.0241546646167  -0.2521776950561     0.0     0.0
 MICROCYCLE DIIS UPDATE:                   15                    5
   16   0.0004290553297  -0.2531049995177     0.0     0.0
   17   0.0004382818371  -0.2530437243654     0.0     0.0
   18   0.0007931218381  -0.2531738896900     0.0     0.0
   19   0.0016039166001  -0.2529274289846     0.0     0.0
   20   0.0032995542810  -0.2534104968467     0.0     0.0
 MICROCYCLE DIIS UPDATE:                   20                    5
   21   0.0000437111572  -0.2530906993417     0.0     0.0
   22   0.0000416659941  -0.2530949165361     0.0     0.0
   23   0.0000731656777  -0.2530864865958     0.0     0.0
   24   0.0001453234317  -0.2531014329406     0.0     0.0
   25   0.0002967264960  -0.2530765217033     0.0     0.0
 MICROCYCLE DIIS UPDATE:                   25                    5
   26   0.0000053277450  -0.2530923339509     0.0     0.0
   27   0.0000052482045  -0.2530916813742     0.0     0.0
   28   0.0000093304367  -0.2530930333872     0.0     0.0
   29   0.0000189547343  -0.2530905755679     0.0     0.0
   30   0.0000393029327  -0.2530952542970     0.0     0.0
 MICROCYCLE DIIS UPDATE:                   30                    5
   31   0.0000005931786  -0.2530921798988     0.0     0.0
   32   0.0000006121120  -0.2530922490173     0.0     0.0
   33   0.0000011085766  -0.2530921056045     0.0     0.0
   34   0.0000022076226  -0.2530923613420     0.0     0.0
   35   0.0000045028743  -0.2530919184661     0.0     0.0
 MICROCYCLE DIIS UPDATE:                   35                    5
   36   0.0000000786714  -0.2530922019567     0.0     0.0
 -----------------------------------------------------------------
 Iterations converged
 CCSD correlation energy / hartree =        -0.253092201956705
 CCSD total energy / hartree       =       -76.286933200476895

 Singles contributions

 Doubles contributions
     6a   (alpha)     7a   (alpha) ---     4a   (alpha)     5a   (alpha)        0.0206525372
     6a   (alpha)     7a   (alpha) ---     5a   (alpha)     4a   (alpha)       -0.0206525372
     6a   (alpha)     8a   (alpha) ---     3a   (alpha)     5a   (alpha)       -0.0276597377
     6a   (alpha)     8a   (alpha) ---     5a   (alpha)     3a   (alpha)        0.0276597377
     7a   (alpha)     6a   (alpha) ---     4a   (alpha)     5a   (alpha)       -0.0206525372
     7a   (alpha)     6a   (alpha) ---     5a   (alpha)     4a   (alpha)        0.0206525372
     7a   (alpha)     8a   (alpha) ---     3a   (alpha)     4a   (alpha)       -0.0267723510
     7a   (alpha)     8a   (alpha) ---     4a   (alpha)     3a   (alpha)        0.0267723510
     8a   (alpha)     6a   (alpha) ---     3a   (alpha)     5a   (alpha)        0.0276597377
     8a   (alpha)     6a   (alpha) ---     5a   (alpha)     3a   (alpha)       -0.0276597377
     8a   (alpha)     7a   (alpha) ---     3a   (alpha)     4a   (alpha)        0.0267723510
     8a   (alpha)     7a   (alpha) ---     4a   (alpha)     3a   (alpha)       -0.0267723510
     6a   (alpha)     6a   (beta ) ---     5a   (alpha)     5a   (beta )       -0.0981870357
     6a   (alpha)     7a   (beta ) ---     5a   (alpha)     4a   (beta )       -0.0317970627
     6a   (alpha)     8a   (beta ) ---     5a   (alpha)     3a   (beta )        0.0394045659
     7a   (alpha)     6a   (beta ) ---     4a   (alpha)     5a   (beta )       -0.0317970627
     7a   (alpha)     7a   (beta ) ---     4a   (alpha)     4a   (beta )       -0.0802374004
     7a   (alpha)     8a   (beta ) ---     4a   (alpha)     3a   (beta )        0.0377037935
     8a   (alpha)     6a   (beta ) ---     3a   (alpha)     5a   (beta )        0.0394045659
     8a   (alpha)     7a   (beta ) ---     3a   (alpha)     4a   (beta )        0.0377037935
     8a   (alpha)     8a   (beta ) ---     3a   (alpha)     3a   (beta )       -0.0573479963
 Ground state specification:
 exp(T)|Ref>~(1+T)|Ref>
 ------- a(p)+/a(q) strings ----------

 singles norm

 doubles norm

 Reference string
   1.0000000000000000      :(1a)+ (2a)+ (3a)+ (4a)+ (5a)+ (1b)+ (2b)+ (3b)+ (4b)+ (5b)+ |0>

 Singles strings

 Doubles strings
 -------------------------------------
 enrep_tce =    8.5802730345472913     
  EHF(total)         =       -76.03384100
  Shift (HFtot-HFA)  =         0.00000000
 ALL OCCUPIED ORBITALS ARE ACTIVE IN DUCC --> NO SHIFT
 Number of active orbitals                    8
 Number of active alpha electrons                    5
 Number of active beta electrons                    5
  nos                    10
  nvs                    62
 noas                     5
 nobs                     5
 nvas                    31
 nvbs                    31
 nactv                     3
 DUCC MODEL =                     6
 NONHF =  T
 F-T1 correlation    =    1.2954126893871098E-004
 V-T1-T1 correlation =    2.9389388414466153E-007
 V-T2 correlation    =  -0.25322203711977426     
 Total correlation   =  -0.25309220195695142     
 F-T1(Ext) correlation         =    1.5975269388368064E-004
 V-T1(Ext)-T1(Ext) correlation =    6.6094760090568415E-006
 V-T2(Ext) correlation         =  -0.15884185091723640     
 Total Ext correlation         =  -0.15867548874734366     
1-BODY TIME =   19.957 SECONDS.
  HHHH TIME =   19.466 SECONDS.
  PPPP TIME =    0.098 SECONDS.
  HHHP TIME =    2.736 SECONDS.
  PPPH TIME =    0.294 SECONDS.
  HPHP TIME =    1.728 SECONDS.
  HHPP TIME =    1.725 SECONDS.
 ONE-BODY UNITARY CHECK
 TWO-BODY UNITARY CHECK
                    1                    1                    1                    2   8.2204113952196442E-012
                    1                    1                    1                    4   7.5907831789738067E-012
                    1                    1                    1                    5   3.7975893065721594E-012
                    1                    1                    2                    1  -8.2204124944456913E-012
                    1                    1                    2                    4  -1.5258318064169240E-010
                    1                    1                    2                    5  -1.4182690516714844E-010
                    1                    1                    4                    1  -7.5907825176845762E-012
                    1                    1                    4                    2   1.5258318068962875E-010
                    1                    1                    4                    5  -1.2612205458558583E-012
                    1                    1                    5                    1  -3.7975874344947223E-012
                    1                    1                    5                    2   1.4182690522138130E-010
                    1                    1                    5                    4   1.2612205454294984E-012
                    1                    2                    1                    1  -8.2204113952196442E-012
                    1                    2                    1                    4  -3.1335914765784345E-011
                    1                    2                    1                    5  -1.7305475628892619E-011
                    1                    2                    2                    1   1.3146528310414851E-010
                    1                    2                    2                    2  -4.4930549068701749E-010
                    1                    2                    2                    4   5.1042541721058043E-010
                    1                    2                    2                    5   3.7662344770650336E-010
                    1                    2                    3                    3  -1.4139505374679402E-011
                    1                    2                    4                    1  -9.1386682075922376E-011
                    1                    2                    4                    2   2.3515605782065130E-010
                    1                    2                    4                    4  -1.5964443194836897E-010
                    1                    2                    4                    5  -1.8729342638704616E-010
                    1                    2                    5                    1  -8.6352814655799026E-011
                    1                    2                    5                    2   2.1184753951075663E-010
                    1                    2                    5                    4  -1.9912357635161471E-010
                    1                    2                    5                    5  -6.3403265565586178E-011
                    1                    3                    2                    3  -1.1178723701918414E-009
                    1                    3                    3                    1   6.4718241876704496E-010
                    1                    3                    3                    2  -2.2271429899953232E-009
                    1                    3                    3                    4   4.1263546746161950E-010
                    1                    3                    3                    5   3.3232097369079172E-010
                    1                    3                    4                    3   7.0148237305694972E-010
                    1                    3                    5                    3   5.9959783318963567E-010
                    1                    4                    1                    1  -7.5907831789738067E-012
                    1                    4                    1                    2   3.1335914765784345E-011
                    1                    4                    2                    1  -3.2096689889238306E-011
                    1                    4                    2                    2   3.0388115532214034E-010
                    1                    4                    2                    4  -5.3813876488631451E-010
                    1                    4                    2                    5  -4.3415010193663395E-011
                    1                    4                    3                    3   4.3727545149630108E-011
                    1                    4                    4                    1   2.8972890753209413E-010
                    1                    4                    4                    2  -9.4370513530409039E-010
                    1                    4                    4                    4   1.7692235996055503E-010
                    1                    4                    4                    5  -4.3359624050942625E-011
                    1                    4                    5                    1  -3.2058015964064879E-011
                    1                    4                    5                    2  -1.5987552330187088E-010
                    1                    4                    5                    4   6.0944162650483635E-010
                    1                    4                    5                    5   8.9221064322516141E-011
                    1                    5                    1                    1  -3.7975893065721594E-012
                    1                    5                    1                    2   1.7305475628892619E-011
                    1                    5                    2                    1  -1.5123498807445568E-011
                    1                    5                    2                    2   1.8649819820353935E-010
                    1                    5                    2                    4   5.9412475454786659E-011
                    1                    5                    2                    5  -5.3753841265311020E-010
                    1                    5                    3                    3   3.8892639699951199E-011
                    1                    5                    4                    1  -4.6524385038937410E-011
                    1                    5                    4                    2  -1.2290496189683829E-010
                    1                    5                    4                    4   7.2590406269563395E-011
                    1                    5                    4                    5   5.9389404418602743E-010
                    1                    5                    5                    1   2.2565382895578523E-010
                    1                    5                    5                    2  -2.8361391533893165E-010
                    1                    5                    5                    4  -2.9863554597969744E-010
                    1                    5                    5                    5  -1.1640874463958317E-010
                    1                    6                    1                    7  -7.0558711651180772E-011
                    1                    6                    1                    9  -1.0851930465349824E-011
                    1                    6                    1                   10  -2.3178958752367862E-012
                    1                    6                    2                    6  -9.3914778731551962E-011
                    1                    6                    2                    7   1.2649135905373754E-010
                    1                    6                    2                    9   2.5124076083460345E-010
                    1                    6                    2                   10   1.1525621125899055E-010
                    1                    6                    3                    8  -1.4604346759705678E-009
                    1                    6                    4                    6   7.4771577818211199E-011
                    1                    6                    4                    7  -7.6198952638113771E-011
                    1                    6                    4                    9  -8.5382442782666601E-010
                    1                    6                    4                   10   2.1175691668900987E-010
                    1                    6                    5                    6   7.8378969980974489E-011
                    1                    6                    5                    7  -8.5852867892123597E-011
                    1                    6                    5                    9   2.0909529966847695E-010
                    1                    6                    5                   10  -7.5190771664512823E-010
                    1                    6                    6                    2   7.8779094359049395E-011
                    1                    6                    6                    4   1.8442677940377905E-011
                    1                    6                    6                    5   6.1153027086646716E-012
                    1                    6                    7                    1   8.5694396023683339E-011
                    1                    6                    7                    2  -1.2649135905373754E-010
                    1                    6                    7                    4  -4.0382394379378378E-010
                    1                    6                    7                    5  -2.5708311282741925E-010
                    1                    6                    8                    3   1.4604346794400147E-009
                    1                    6                    9                    1  -8.2362325293239280E-011
                    1                    6                    9                    2   2.2878213559729410E-010
                    1                    6                    9                    4   8.5382442782666601E-010
                    1                    6                    9                    5  -2.1301815476479358E-010
                    1                    6                   10                    1  -8.2176376814402374E-011
                    1                    6                   10                    2   2.2767976924371186E-010
                    1                    6                   10                    4  -2.0783406159269324E-010
                    1                    6                   10                    5   7.5190771664512823E-010
                    1                    7                    1                    6   7.0558711651180772E-011
                    1                    7                    1                    9   8.7142229196479626E-012
                    1                    7                    1                   10   3.9929596087895369E-012
                    1                    7                    2                    6   4.8516746523064036E-010
                    1                    7                    2                    7   3.8977290492403505E-010
                    1                    7                    2                    9  -1.0593496132388358E-010
                    1                    7                    2                   10   1.9243690018225235E-010
                    1                    7                    3                    8   2.5927179153617530E-009
                    1                    7                    4                    6  -2.4398312921869100E-010
                    1                    7                    4                    7   1.3810548885051510E-010
                    1                    7                    4                    9   1.4893768874452151E-009
                    1                    7                    4                   10  -5.7467803183264971E-010
                    1                    7                    5                    6  -2.3495428774214164E-010
                    1                    7                    5                    7   4.6842634979227249E-010
                    1                    7                    5                    9  -6.2346227892818781E-010
                    1                    7                    5                   10   1.5891970586712212E-009
                    1                    7                    6                    1  -7.8779135992412819E-011
                    1                    7                    6                    4  -4.0050152728737451E-011
                    1                    7                    6                    5  -2.1298376528134516E-011
                    1                    7                    7                    1  -3.5370462114769907E-010
                    1                    7                    7                    2  -8.3907839357189040E-010
                    1                    7                    7                    4   6.1636040889212484E-010
                    1                    7                    7                    5   1.8418664163299958E-010
                    1                    7                    8                    3  -2.6068574313087289E-009
                    1                    7                    9                    1   1.5259649013138477E-010
                    1                    7                    9                    2   9.7050520831559739E-011
                    1                    7                    9                    4  -1.6490213170655688E-009
                    1                    7                    9                    5   3.8738460871176258E-010
                    1                    7                   10                    1   1.4860142370093365E-010
                    1                    7                   10                    2  -2.5657890048713661E-010
                    1                    7                   10                    4   4.2433869926975648E-010
                    1                    7                   10                    5  -1.6526003204786477E-009
                    1                    8                    2                    8   7.9869274041688421E-010
                    1                    8                    3                    6   1.2651348718639710E-011
                    1                    8                    3                    7   2.5599281895660742E-009
                    1                    8                    3                    9   1.6015069478902966E-011
                    1                    8                    3                   10   1.0828918144134558E-010
                    1                    8                    4                    8   6.2294746661431533E-010
                    1                    8                    5                    8   6.1094162671568308E-010
                    1                    8                    7                    3  -1.9165653092345636E-009
                    1                    8                    8                    1   6.3453109433453392E-010
                    1                    8                    8                    2  -4.7870709844050063E-009
                    1                    8                    8                    4   3.9662045045810168E-010
                    1                    8                    8                    5   2.2403176796331747E-010
                    1                    8                    9                    3   7.8534851365164027E-011
                    1                    8                   10                    3  -1.1343761867343982E-011
                    1                    9                    1                    6   1.0851930465349824E-011
                    1                    9                    1                    7  -8.7142229196479626E-012
                    1                    9                    1                   10   6.8672671715841460E-012
                    1                    9                    2                    6  -3.8102088839716761E-011
                    1                    9                    2                    7   1.9534131690673862E-011
                    1                    9                    2                    9   2.3138482969919938E-010
                    1                    9                    2                   10  -1.4932824952702123E-010
                    1                    9                    3                    8   3.2585685191821590E-010
                    1                    9                    4                    6   2.9333063755743183E-012
                    1                    9                    4                    7   1.1814579869984243E-009
                    1                    9                    4                    9   1.8591791084085485E-009
                    1                    9                    4                   10  -1.7055993162956584E-010
                    1                    9                    5                    6   5.9661581230940897E-012
                    1                    9                    5                    7  -5.2776965680763691E-010
                    1                    9                    5                    9   2.4326745782718429E-010
                    1                    9                    5                   10   2.3498816217534801E-010
                    1                    9                    6                    1  -1.8442719573741329E-011
                    1                    9                    6                    2   4.0050153568994135E-011
                    1                    9                    6                    5  -6.2606278668220217E-012
                    1                    9                    7                    1   6.0054105785467549E-012
                    1                    9                    7                    2   2.8434702249030552E-010
                    1                    9                    7                    4  -7.6952362711157907E-010
                    1                    9                    7                    5   1.0591324220649359E-010
                    1                    9                    8                    3  -2.8212930602844466E-010
                    1                    9                    9                    1   2.8679536523412708E-010
                    1                    9                    9                    2  -2.1251631027868756E-009
                    1                    9                    9                    4  -1.6822567497007390E-009
                    1                    9                    9                    5   1.2720023862336505E-010
                    1                    9                   10                    1  -3.8024406540104749E-011
                    1                    9                   10                    2   3.6789413030736962E-010
                    1                    9                   10                    4   3.6617424240339980E-010
                    1                    9                   10                    5  -1.4576710021321770E-010
                    1                   10                    1                    6   2.3178958752367862E-012
                    1                   10                    1                    7  -3.9929596087895369E-012
                    1                   10                    1                    9  -6.8672671715841460E-012
                    1                   10                    2                    6  -3.5206318708871226E-011
                    1                   10                    2                    7   1.7460460377885512E-010
                    1                   10                    2                    9   3.7511295502071218E-011
                    1                   10                    2                   10  -7.1100916820832083E-011
                    1                   10                    3                    8   2.4742185210369083E-010
                    1                   10                    4                    6  -6.2302324757568250E-012
                    1                   10                    4                    7  -4.2734328521611825E-010
                    1                   10                    4                    9   1.8211635845200025E-010
                    1                   10                    4                   10   2.8152828549302122E-010
                    1                   10                    5                    6   9.0425930632243023E-012
                    1                   10                    5                    7   9.5358151236402122E-010
                    1                   10                    5                    9  -1.1533343160716192E-010
[...]
    7    6    5    6        0.0045627160
    7    6    5    7        0.0190471427
    7    7    5    1       -0.0053194757
    7    7    5    2       -0.0118026364
    7    7    5    4        0.0058011242
    7    7    5    5        0.5528588531
    7    7    5    6        0.1819384960
    7    7    5    7       -0.0073000595
    7    8    5    3       -0.0025159629
    7    8    5    8        0.0000031304
    7    1    6    1        0.0051474627
    7    1    6    2       -0.0053645815
    7    1    6    4        0.0053718479
    7    1    6    5       -0.0041135825
    7    1    6    6       -0.0085445929
    7    1    6    7        0.0090017543
    7    2    6    1       -0.0051085844
    7    2    6    2       -0.0202466941
    7    2    6    4        0.0084500196
    7    2    6    5        0.0062784694
    7    2    6    6        0.0014301088
    7    2    6    7        0.0092831079
    7    3    6    3        0.0046977200
    7    3    6    8       -0.0022077124
    7    4    6    1       -0.0041492736
    7    4    6    2        0.0104368528
    7    4    6    4        0.0217629155
    7    4    6    5        0.0992756539
    7    4    6    6        0.1708317645
    7    4    6    7       -0.0085272241
    7    5    6    1        0.0052913438
    7    5    6    2        0.0057714055
    7    5    6    4        0.0155062239
    7    5    6    5       -0.0112732660
    7    5    6    6       -0.0049437451
    7    5    6    7        0.0190471427
    7    6    6    1        0.0062433697
    7    6    6    2        0.0067273485
    7    6    6    4        0.0181321006
    7    6    6    5        0.0045441134
    7    6    6    6       -0.0086858759
    7    6    6    7        0.0300136522
    7    7    6    1       -0.0093463660
    7    7    6    2        0.0042498538
    7    7    6    4        0.0127613388
    7    7    6    5        0.1819384960
    7    7    6    6        0.5729036966
    7    7    6    7        0.0156287922
    7    8    6    3       -0.0022662834
    7    8    6    8        0.0056221600
    7    1    7    1        0.0526631447
    7    1    7    2        0.0242003567
    7    1    7    4        0.0047306250
    7    1    7    5        0.0041103190
    7    1    7    6        0.0089032806
    7    1    7    7        0.0141362983
    7    2    7    1        0.0242003567
    7    2    7    2        0.0586163487
    7    2    7    4        0.0172242613
    7    2    7    5        0.0019393280
    7    2    7    6        0.0093844909
    7    2    7    7        0.0255480733
    7    3    7    3        0.0259105963
    7    3    7    7        0.0000000002
    7    3    7    8       -0.0173814515
    7    4    7    1        0.0047306250
    7    4    7    2        0.0172242613
    7    4    7    4        0.1974210877
    7    4    7    5       -0.0139653099
    7    4    7    6       -0.0085130626
    7    4    7    7        0.1226873960
    7    5    7    1        0.0041103190
    7    5    7    2        0.0019393280
    7    5    7    4       -0.0139653099
    7    5    7    5        0.0206014765
    7    5    7    6        0.0195006602
    7    5    7    7       -0.0073000595
    7    6    7    1        0.0089032806
    7    6    7    2        0.0093844909
    7    6    7    4       -0.0085130626
    7    6    7    5        0.0195006602
    7    6    7    6        0.0300218518
    7    6    7    7        0.0156287922
    7    7    7    1        0.0141362983
    7    7    7    2        0.0255480733
    7    7    7    3        0.0000000002
    7    7    7    4        0.1226873960
    7    7    7    5       -0.0073000595
    7    7    7    6        0.0156287922
    7    7    7    7        0.7800316734
    7    8    7    3       -0.0173814515
    7    8    7    8        0.0283798112
    7    1    8    3        0.0041385475
    7    1    8    8       -0.0064836322
    7    2    8    3       -0.0095270626
    7    2    8    8        0.0075865645
    7    3    8    1       -0.0078710698
    7    3    8    2       -0.0113527941
    7    3    8    3       -0.0000000001
    7    3    8    4       -0.0180182874
    7    3    8    5       -0.0001418680
    7    3    8    6       -0.0023235330
    7    3    8    7       -0.0175858169
    7    3    8    8        0.0000000001
    7    4    8    3       -0.1155014068
    7    4    8    8        0.1511484165
    7    5    8    3        0.0103858401
    7    5    8    8       -0.0136961684
    7    6    8    3        0.0040297490
    7    6    8    8       -0.0042167806
    7    7    8    3       -0.1791825218
    7    7    8    4        0.0000000002
    7    7    8    8        0.5698677295
    7    8    8    1        0.0093702753
    7    8    8    2        0.0076930385
    7    8    8    4        0.0078972343
    7    8    8    5        0.0000839745
    7    8    8    6        0.0056412328
    7    8    8    7        0.0283613004
    8    1    1    1        0.0000000008
    8    1    1    3       -0.0365630909
    8    1    1    8        0.0521535927
    8    2    1    3       -0.0173188372
    8    2    1    8        0.0254188096
    8    3    1    1       -0.5102633524
    8    3    1    2       -0.0115465268
    8    3    1    4        0.0029675965
    8    3    1    5        0.0026131307
    8    3    1    6        0.0053282749
    8    3    1    7        0.0046375510
    8    4    1    1        0.0000000004
    8    4    1    3       -0.0031501639
    8    4    1    8        0.0041080776
    8    5    1    1        0.0000000002
    8    5    1    3       -0.0030258548
    8    5    1    8        0.0039541932
    8    6    1    3       -0.0070415549
    8    6    1    8        0.0107661300
    8    7    1    3       -0.0061806726
    8    7    1    8        0.0093702753
    8    8    1    1        1.0192039462
    8    8    1    2        0.0135523625
    8    8    1    4       -0.0049535599
    8    8    1    5       -0.0044111611
    8    8    1    6       -0.0075402334
    8    8    1    7       -0.0064836322
    8    1    2    2        0.0000000001
    8    1    2    3       -0.0346502839
    8    1    2    8        0.0254188096
    8    2    2    2        0.0000000002
    8    2    2    3       -0.0503579550
    8    2    2    8        0.0456034791
    8    3    2    1       -0.0114199218
    8    3    2    2       -0.2131093861
    8    3    2    3       -0.0000000002
    8    3    2    4        0.0013463674
    8    3    2    5        0.0000463958
    8    3    2    6       -0.0103620266
    8    3    2    7       -0.0076630306
    8    3    2    8        0.0000000001
    8    4    2    2        0.0000000002
    8    4    2    3       -0.0030752636
    8    4    2    8        0.0039020636
    8    5    2    2        0.0000000001
    8    5    2    3       -0.0030772674
    8    5    2    8        0.0040717961
    8    6    2    2        0.0000000001
    8    6    2    3       -0.0259783024
    8    6    2    8        0.0091445998
    8    7    2    2        0.0000000001
    8    7    2    3       -0.0221971654
    8    7    2    8        0.0076930385
    8    8    2    1        0.0135523625
    8    8    2    2        0.6222757909
    8    8    2    3        0.0000000004
    8    8    2    4        0.0043909447
    8    8    2    5        0.0045448026
    8    8    2    6        0.0107351336
    8    8    2    7        0.0075865645
    8    1    3    1       -0.0362053391
    8    1    3    2       -0.0350125274
    8    1    3    3       -0.0000000001
    8    1    3    4       -0.0072299974
    8    1    3    5       -0.0068179100
    8    1    3    6       -0.0092269057
    8    1    3    7       -0.0080445077
    8    2    3    1       -0.0191948613
    8    2    3    2       -0.0514475577
    8    2    3    3       -0.0000000001
    8    2    3    4       -0.0064467594
    8    2    3    5       -0.0063490104
    8    2    3    6       -0.0126100999
    8    2    3    7       -0.0106572297
    8    2    3    8        0.0000000001
    8    3    3    2       -0.0000000002
    8    3    3    3       -0.2050981713
    8    3    3    7       -0.0000000001
    8    3    3    8        0.1588996318
    8    4    3    1       -0.0032606664
    8    4    3    2       -0.0033379257
    8    4    3    3        0.0000000001
    8    4    3    4       -0.0073925717
    8    4    3    5       -0.0014444894
    8    4    3    6       -0.0034712173
    8    4    3    7       -0.0169680515
    8    5    3    1       -0.0031364587
    8    5    3    2       -0.0033033595
    8    5    3    4       -0.0014332328
    8    5    3    5       -0.0067241967
    8    5    3    6       -0.0164247952
    8    5    3    7       -0.0002704767
    8    6    3    1       -0.0069491155
    8    6    3    2       -0.0263578398
    8    6    3    3       -0.0000000001
    8    6    3    4       -0.0077194091
    8    6    3    5       -0.0264859315
    8    6    3    6       -0.0184442709
    8    6    3    7       -0.0022077124
    8    7    3    1       -0.0060964414
    8    7    3    2       -0.0225555177
    8    7    3    3       -0.0000000001
    8    7    3    4       -0.0273937814
    8    7    3    5       -0.0025159629
    8    7    3    6       -0.0022662834
    8    7    3    7       -0.0173814515
    8    8    3    2        0.0000000004
    8    8    3    3        0.6299292916
    8    8    3    7        0.0000000001
    8    8    3    8       -0.1826049656
    8    1    4    3       -0.0071993241
    8    1    4    8        0.0041080776
    8    2    4    3       -0.0057908355
    8    2    4    8        0.0039020636
    8    3    4    1        0.0028370524
    8    3    4    2        0.0013280445
    8    3    4    4       -0.1504289433
    8    3    4    5       -0.0051091161
    8    3    4    6       -0.0124814428
    8    3    4    7       -0.1184678469
    8    4    4    3       -0.0069001938
    8    4    4    4        0.0000000002
    8    4    4    8        0.0155862372
    8    5    4    3       -0.0013507557
    8    5    4    8        0.0013051090
    8    6    4    3       -0.0078534588
    8    6    4    8        0.0016120394
    8    7    4    3       -0.0267681268
    8    7    4    8        0.0078972343
    8    8    4    1       -0.0049535599
    8    8    4    2        0.0043909447
    8    8    4    4        0.5473437695
    8    8    4    5        0.0074252713
    8    8    4    6        0.0155609730
    8    8    4    7        0.1511484165
    8    8    4    8        0.0000000001
    8    1    5    3       -0.0067940234
    8    1    5    8        0.0039541932
    8    2    5    3       -0.0057208523
    8    2    5    8        0.0040717961
    8    3    5    1        0.0024833470
    8    3    5    2        0.0001062515
    8    3    5    4       -0.0051284676
    8    3    5    5       -0.1426344957
    8    3    5    6       -0.1170809637
    8    3    5    7        0.0102836660
    8    4    5    3       -0.0013702839
    8    4    5    5        0.0000000001
    8    4    5    8        0.0013051090
    8    5    5    3       -0.0062601462
    8    5    5    5        0.0000000001
    8    5    5    8        0.0153895353
    8    6    5    3       -0.0257924486
    8    6    5    8        0.0076819781
    8    7    5    3       -0.0027693561
    8    7    5    8        0.0000839745
    8    8    5    1       -0.0044111611
    8    8    5    2        0.0045448026
    8    8    5    4        0.0074252713
    8    8    5    5        0.5328541413
    8    8    5    6        0.1537571555
    8    8    5    7       -0.0136961684
    8    1    6    3       -0.0090354678
    8    1    6    8        0.0107661300
    8    2    6    3       -0.0133048138
    8    2    6    8        0.0091445998
    8    3    6    1        0.0047242565
    8    3    6    2       -0.0122451146
    8    3    6    4       -0.0118717962
    8    3    6    5       -0.1148408585
    8    3    6    6       -0.1722462688
    8    3    6    7        0.0039822874
    8    4    6    3       -0.0034994375
    8    4    6    6        0.0000000001
    8    4    6    8        0.0016120394
    8    5    6    3       -0.0175036423
    8    5    6    6        0.0000000001
    8    5    6    8        0.0076819781
    8    6    6    3       -0.0186752949
    8    6    6    8        0.0284946067
    8    7    6    3       -0.0024031380
    8    7    6    8        0.0056412328
    8    8    6    1       -0.0075402334
    8    8    6    2        0.0107351336
    8    8    6    4        0.0155609730
    8    8    6    5        0.1537571555
    8    8    6    6        0.5559530965
    8    8    6    7       -0.0042167806
    8    1    7    3       -0.0078710698
    8    1    7    8        0.0093702753
    8    2    7    3       -0.0113527941
    8    2    7    8        0.0076930385
    8    3    7    1        0.0041385475
    8    3    7    2       -0.0095270626
    8    3    7    3       -0.0000000001
    8    3    7    4       -0.1155014068
    8    3    7    5        0.0103858401
    8    3    7    6        0.0040297490
    8    3    7    7       -0.1791825218
    8    4    7    3       -0.0180182874
    8    4    7    7        0.0000000002
    8    4    7    8        0.0078972343
    8    5    7    3       -0.0001418680
    8    5    7    8        0.0000839745
    8    6    7    3       -0.0023235330
    8    6    7    8        0.0056412328
    8    7    7    3       -0.0175858169
    8    7    7    8        0.0283613004
    8    8    7    1       -0.0064836322
    8    8    7    2        0.0075865645
    8    8    7    3        0.0000000001
    8    8    7    4        0.1511484165
    8    8    7    5       -0.0136961684
    8    8    7    6       -0.0042167806
    8    8    7    7        0.5698677295
    8    1    8    1        0.0513326395
    8    1    8    2        0.0255476043
    8    1    8    4        0.0038217520
    8    1    8    5        0.0036924210
    8    1    8    6        0.0105926522
    8    1    8    7        0.0092168411
    8    2    8    1        0.0255476043
    8    2    8    2        0.0506350543
    8    2    8    4        0.0042206845
    8    2    8    5        0.0043661984
    8    2    8    6        0.0097435791
    8    2    8    7        0.0082100265
    8    3    8    3        0.1564487892
    8    3    8    8       -0.1826049656
    8    4    8    1        0.0038217520
    8    4    8    2        0.0042206845
    8    4    8    4        0.0147768409
    8    4    8    5        0.0012892956
    8    4    8    6        0.0015630087
    8    4    8    7        0.0081087402
    8    4    8    8        0.0000000001
    8    5    8    1        0.0036924210
    8    5    8    2        0.0043661984
    8    5    8    4        0.0012892956
    8    5    8    5        0.0150890649
    8    5    8    6        0.0079176833
    8    5    8    7        0.0000031304
    8    6    8    1        0.0105926522
    8    6    8    2        0.0097435791
    8    6    8    4        0.0015630087
    8    6    8    5        0.0079176833
    8    6    8    6        0.0285094285
    8    6    8    7        0.0056221600
    8    7    8    1        0.0092168411
    8    7    8    2        0.0082100265
    8    7    8    4        0.0081087402
    8    7    8    5        0.0000031304
    8    7    8    6        0.0056221600
    8    7    8    7        0.0283798112
    8    8    8    3       -0.1826049656
    8    8    8    4        0.0000000001
    8    8    8    8        0.5851130288
 end_two_electron_integrals

 Parallel integral file used       3 records with       0 large values


 Task  times  cpu:       48.7s     wall:       49.0s


                                NWChem Input Module
                                -------------------


 Summary of allocated global arrays
-----------------------------------
  No active global arrays


MA_summarize_allocated_blocks: starting scan ...
MA_summarize_allocated_blocks: scan completed: 0 heap blocks, 0 stack blocks
MA usage statistics:

	allocation statistics:
					      heap	     stack
					      ----	     -----
	current number of blocks	         0	         0
	maximum number of blocks	        18	        42
	current total bytes		         0	         0
	maximum total bytes		   5323032	 716782712
	maximum total K-bytes		      5324	    716783
	maximum total M-bytes		         6	       717


                                     CITATION
                                     --------
                Please cite the following reference when publishing
                           results obtained with NWChem:

          E. Apra, E. J. Bylaska, W. A. de Jong, N. Govind, K. Kowalski,
       T. P. Straatsma, M. Valiev, H. J. J. van Dam, Y. Alexeev, J. Anchell,
       V. Anisimov, F. W. Aquino, R. Atta-Fynn, J. Autschbach, N. P. Bauman,
     J. C. Becca, D. E. Bernholdt, K. Bhaskaran-Nair, S. Bogatko, P. Borowski,
         J. Boschen, J. Brabec, A. Bruner, E. Cauet, Y. Chen, G. N. Chuev,
      C. J. Cramer, J. Daily, M. J. O. Deegan, T. H. Dunning Jr., M. Dupuis,
   K. G. Dyall, G. I. Fann, S. A. Fischer, A. Fonari, H. Fruchtl, L. Gagliardi,
      J. Garza, N. Gawande, S. Ghosh, K. Glaesemann, A. W. Gotz, J. Hammond,
       V. Helms, E. D. Hermes, K. Hirao, S. Hirata, M. Jacquelin, L. Jensen,
   B. G. Johnson, H. Jonsson, R. A. Kendall, M. Klemm, R. Kobayashi, V. Konkov,
      S. Krishnamoorthy, M. Krishnan, Z. Lin, R. D. Lins, R. J. Littlefield,
      A. J. Logsdail, K. Lopata, W. Ma, A. V. Marenich, J. Martin del Campo,
   D. Mejia-Rodriguez, J. E. Moore, J. M. Mullin, T. Nakajima, D. R. Nascimento,
    J. A. Nichols, P. J. Nichols, J. Nieplocha, A. Otero-de-la-Roza, B. Palmer,
    A. Panyala, T. Pirojsirikul, B. Peng, R. Peverati, J. Pittner, L. Pollack,
   R. M. Richard, P. Sadayappan, G. C. Schatz, W. A. Shelton, D. W. Silverstein,
   D. M. A. Smith, T. A. Soares, D. Song, M. Swart, H. L. Taylor, G. S. Thomas,
            V. Tipparaju, D. G. Truhlar, K. Tsemekhman, T. Van Voorhis,
      A. Vazquez-Mayagoitia, P. Verma, O. Villa, A. Vishnu, K. D. Vogiatzis,
        D. Wang, J. H. Weare, M. J. Williamson, T. L. Windus, K. Wolinski,
        A. T. Wong, Q. Wu, C. Yang, Q. Yu, M. Zacharias, Z. Zhang, Y. Zhao,
                                and R. J. Harrison
                        "NWChem: Past, present, and future
                         J. Chem. Phys. 152, 184102 (2020)
                               doi:10.1063/5.0004997

                                      AUTHORS
                                      -------
  E. Apra, E. J. Bylaska, N. Govind, K. Kowalski, M. Valiev, D. Mejia-Rodriguez,
       A. Kunitsa, N. P. Bauman, A. Panyala, W. A. de Jong, T. P. Straatsma,
        H. J. J. van Dam, D. Wang, T. L. Windus, J. Hammond, J. Autschbach,
    K. Bhaskaran-Nair, J. Brabec, K. Lopata, S. A. Fischer, S. Krishnamoorthy,
     M. Jacquelin, W. Ma, M. Klemm, O. Villa, Y. Chen, V. Anisimov, F. Aquino,
    S. Hirata, M. T. Hackler, Eric Hermes, L. Jensen, J. E. Moore, J. C. Becca,
      V. Konjkov, T. Risthaus, M. Malagoli, A. Marenich, A. Otero-de-la-Roza,
        J. Mullin, P. Nichols, R. Peverati, J. Pittner, Y. Zhao, P.-D. Fan,
        A. Fonari, M. J. Williamson, R. J. Harrison, J. R. Rehr, M. Dupuis,
     D. Silverstein, D. M. A. Smith, J. Nieplocha, V. Tipparaju, M. Krishnan,
     B. E. Van Kuiken, A. Vazquez-Mayagoitia, M. Swart, Q. Wu, T. Van Voorhis,
     A. A. Auer, M. Nooijen, L. D. Crosby, E. Brown, G. Cisneros, G. I. Fann,
   H. Fruchtl, J. Garza, K. Hirao, R. A. Kendall, J. A. Nichols, K. Tsemekhman,
    K. Wolinski, J. Anchell, D. E. Bernholdt, P. Borowski, T. Clark, D. Clerc,
   H. Dachsel, M. J. O. Deegan, K. Dyall, D. Elwood, E. Glendening, M. Gutowski,
   A. C. Hess, J. Jaffe, B. G. Johnson, J. Ju, R. Kobayashi, R. Kutteh, Z. Lin,
   R. Littlefield, X. Long, B. Meng, T. Nakajima, S. Niu, L. Pollack, M. Rosing,
   K. Glaesemann, G. Sandrone, M. Stave, H. Taylor, G. Thomas, J. H. van Lenthe,
                               A. T. Wong, Z. Zhang.

 Total times  cpu:       50.3s     wall:       52.1s
