 argument  1 = input.nw
  NWChem w/ OpenMP: maximum threads =    1



============================== echo of input deck ==============================
 echo
 start H2O
 title "H2O"

 memory total 24 gb

 geometry units bohr
 symmetry c1
        O  0.00000000  0.00000000  0.00000000
        H  0.00000000  2.4886575  0.00000000
        H  1.72558000 -0.64860000  0.00000000
 end

 basis spherical
   * library 6-311++G**
 end

 mcscf
   active  8
   actelec 10
   multiplicity 1
   maxiter 40
   vectors input h2o.mos
   vectors output h2o.mos
 end

 task mcscf

 scf
   vectors input h2o.mos
   vectors output h2o-trash.mos
   noscf
 end

 tce
   2eorb
   2emet 13
   ccsd
   maxiter 300
 end

# set tce:print_integrals T
# set tce:qorb 8
# set tce:qela 5
# set tce:qelb 5

 set tce:qducc T
 set tce:nactv 3
 set tce:nonhf T
 set tce:ducc_model 6

 set tce:printtol 0.02

 task tce
================================================================================


                                         
                                         


             Northwest Computational Chemistry Package (NWChem) 7.0.1
             --------------------------------------------------------


                    Environmental Molecular Sciences Laboratory
                       Pacific Northwest National Laboratory
                                Richland, WA 99352

                              Copyright (c) 1994-2020
                       Pacific Northwest National Laboratory
                            Battelle Memorial Institute

             NWChem is an open-source computational chemistry package
                        distributed under the terms of the
                      Educational Community License (ECL) 2.0
             A copy of the license is included with this distribution
                              in the LICENSE.TXT file

                                  ACKNOWLEDGMENT
                                  --------------

            This software and its documentation were developed at the
            EMSL at Pacific Northwest National Laboratory, a multiprogram
            national laboratory, operated for the U.S. Department of Energy
            by Battelle under Contract Number DE-AC05-76RL01830. Support
            for this work was provided by the Department of Energy Office
            of Biological and Environmental Research, Office of Basic
            Energy Sciences, and the Office of Advanced Scientific Computing.


           Job information
           ---------------

    hostname        = WE46210
    program         = /home/baum612/code/nwchem/bin/LINUX64/nwchem
    date            = Thu Sep  5 12:31:09 2024

    compiled        = Wed_Sep_04_02:00:17_2024
    source          = /home/baum612/code/nwchem
    nwchem branch   = 7.0.0
    nwchem revision = nwchem_on_git-4191-g39d87d64de
    ga revision     = 5.8.1
    use scalapack   = F
    input           = input.nw
    prefix          = H2O.
    data base       = ./H2O.db
    status          = startup
    nproc           =        1
    time left       =     -1s



           Memory information
           ------------------

    heap     =  805306366 doubles =   6144.0 Mbytes
    stack    =  805306363 doubles =   6144.0 Mbytes
    global   = 1610612736 doubles =  12288.0 Mbytes (distinct from heap & stack)
    total    = 3221225465 doubles =  24576.0 Mbytes
    verify   = yes
    hardfail = no 


           Directory information
           ---------------------

  0 permanent = .
  0 scratch   = .




                                NWChem Input Module
                                -------------------


                                        H2O
                                        ---
 Turning off AUTOSYM since
 SYMMETRY directive was detected!


          ------
          auto-z
          ------
  autoz: The atoms group into disjoint clusters
 cluster   1:    1    3
 cluster   2:    2
 Connecting clusters   1   2 via atoms    1    2 r = 1.32
  autoz: regenerating connections with new bonds
  no constraints, skipping    0.0000000000000000     
  no constraints, skipping    0.0000000000000000     


                             Geometry "geometry" -> ""
                             -------------------------

 Output coordinates in a.u. (scale by  1.000000000 to convert to a.u.)

  No.       Tag          Charge          X              Y              Z
 ---- ---------------- ---------- -------------- -------------- --------------
    1 O                    8.0000    -0.17255800    -0.18400575     0.00000000
    2 H                    1.0000    -0.17255800     2.30465175     0.00000000
    3 H                    1.0000     1.55302200    -0.83260575     0.00000000

      Atomic Mass 
      ----------- 

      O                 15.994910
      H                  1.007825


 Effective nuclear repulsion energy (a.u.)       7.8335637558

            Nuclear Dipole moment (a.u.) 
            ----------------------------
        X                 Y               Z
 ---------------- ---------------- ----------------
    -0.0000000000    -0.0000000000     0.0000000000



                                Z-matrix (autoz)
                                -------- 

 Units are Angstrom for bonds and degrees for angles

      Type          Name      I     J     K     L     M      Value
      ----------- --------  ----- ----- ----- ----- ----- ----------
    1 Stretch                  1     2                       1.31694
    2 Stretch                  1     3                       0.97551
    3 Bend                     2     1     3               110.59992


            XYZ format geometry
            -------------------
     3
 geometry
 O                    -0.09131377    -0.09737166     0.00000000
 H                    -0.09131377     1.21956927     0.00000000
 H                     0.82182391    -0.44059602     0.00000000

 ==============================================================================
                                internuclear distances
 ------------------------------------------------------------------------------
       center one      |      center two      | atomic units |       a.u.
 ------------------------------------------------------------------------------
    3 H                |   1 O                |     1.84345  |     1.84345
 ------------------------------------------------------------------------------
                         number of included internuclear distances:          1
 ==============================================================================





 Summary of "ao basis" -> "" (spherical)
 ------------------------------------------------------------------------------
       Tag                 Description            Shells   Functions and Types
 ---------------- ------------------------------  ------  ---------------------
 *                         6-311++G**                 on all atoms 


                      Basis "ao basis" -> "ao basis" (spherical)
                      -----
  O (Oxygen)
  ----------
            Exponent  Coefficients 
       -------------- ---------------------------------------------------------
  1 S  8.58850000E+03  0.001895
  1 S  1.29723000E+03  0.014386
  1 S  2.99296000E+02  0.070732
  1 S  8.73771000E+01  0.240001
  1 S  2.56789000E+01  0.594797
  1 S  3.74004000E+00  0.280802

  2 S  4.21175000E+01  0.113889
  2 S  9.62837000E+00  0.920811
  2 S  2.85332000E+00 -0.003274

  3 P  4.21175000E+01  0.036511
  3 P  9.62837000E+00  0.237153
  3 P  2.85332000E+00  0.819702

  4 S  9.05661000E-01  1.000000

  5 P  9.05661000E-01  1.000000

  6 S  2.55611000E-01  1.000000

  7 P  2.55611000E-01  1.000000

  8 S  8.45000000E-02  1.000000

  9 P  8.45000000E-02  1.000000

 10 D  1.29200000E+00  1.000000

  H (Hydrogen)
  ------------
            Exponent  Coefficients 
       -------------- ---------------------------------------------------------
  1 S  3.38650000E+01  0.025494
  1 S  5.09479000E+00  0.190373
  1 S  1.15879000E+00  0.852161

  2 S  3.25840000E-01  1.000000

  3 S  1.02741000E-01  1.000000

  4 S  3.60000000E-02  1.000000

  5 P  7.50000000E-01  1.000000



 Summary of "ao basis" -> "ao basis" (spherical)
 ------------------------------------------------------------------------------
       Tag                 Description            Shells   Functions and Types
 ---------------- ------------------------------  ------  ---------------------
 O                         6-311++G**               10       22   5s4p1d
 H                         6-311++G**                5        7   4s1p



                            NWChem Direct MCSCF Module
                            --------------------------


                                        H2O


     -----------------------------------
       Basis functions:             36
       Inactive shells:              0
       Active shells:                8
       Active electrons:            10
       Symmetry:                    a       
       Multiplicity:                 1
       Orbital rotations:          224
     -----------------------------------

     -----------------------------------
       E2 extrapolation:             F
       Conjugacy:                    T
       Micro CI relax:               T
       Canonical orbitals:           T
       Maximum iterations:          40
       Converge threshold:    1.00E-04
       Conjugacy resets:            20
       Initial levelshift:        0.10
     -----------------------------------

 Loading old vectors from job with title :

H2O


   input molecular orbitals = ./h2o.mos
  output molecular orbtials = ./h2o.mos

       No. of determinants:          3136


  Starting Orbital Energies
   -20.583415    -1.308109    -0.684262    -0.558160    -0.525538    -0.044328
    -0.026274    -0.016567     0.074761     0.086977     0.236694     0.280576
     0.319410     0.482116     0.500307     0.654689     1.028032     1.176340
     1.475555     1.565912     1.613503     1.694602     1.704324     2.010777
     2.282890     2.744816     2.823879     3.249683     3.480751     3.493049
     3.855327     4.179811     5.342409     5.551456     5.965013    51.507034

  Orbital Symmetry Irreps
a    a    a    a    a    a    a    a    a    a    a    a    a    a    a   
a    a    a    a    a    a    a    a    a    a    a    a    a    a    a   
a    a    a    a    a    a   

 Integral file          = ./H2O.aoints.0
 Record size in doubles =  65536        No. of integs per rec  =  43688
 Max. records in memory =     10        Max. records in file   = 232502
 No. of bits per label  =      8        No. of bits per value  =     64


 #quartets = 2.216D+04 #integrals = 1.003D+05 #direct =  0.0% #cached =100.0%




          %%%%% MacroIteration   1 %%%%%


          Number of sigma calls:       16
                       o<<<<< (aa):             0.00
                       o<<<<< (bb):             0.00
                       o<<<<< (ab):             0.04
                       o<<<<< (total)           0.04
                       o<<<<< (aa) ff           0.00
                       o<<<<< (aa) gop          0.00
                       o<<<<< (aa) dot          0.00
                       o<<<<< (ab) str          0.00
                       o<<<<< (ab) gath         0.00
                       o<<<<< (ab) dotab        0.00
                       o<<<<< (ab) scat         0.00
                       o<<<<< (ab) sync         0.00
                       o<<<<< Density           0.01
                       o<<<<< Density one       0.00
                       o<<<<< Density two       0.00
                       o<<<<< Density ab        0.00
                       o<<<<< Spin adapt        0.20
                       o<<<<< Symm adapt        0.00

                       o<<<<< (ab) max sync:      0.00

           >>>| Valence CI:            -83.920144964664
           >>>| MCSCF energy:          -76.086581208834
           >>>| Gradient norm:          0.134429373D-01

                              ----- Line search ------

        step       energy         lsg     num-lsg   num-lsh   lsrat    time
      ------- ---------------- --------- --------- --------- ------- --------
       0.0000     -76.08658121 -2.20D-05  0.00D+00  0.00D+00 0.0D+00      0.4

          Number of sigma calls:       15
                       o<<<<< (aa):             0.00
                       o<<<<< (bb):             0.00
                       o<<<<< (ab):             0.05
                       o<<<<< (total)           0.06
                       o<<<<< (aa) ff           0.00
                       o<<<<< (aa) gop          0.00
                       o<<<<< (aa) dot          0.00
                       o<<<<< (ab) str          0.00
                       o<<<<< (ab) gath         0.00
                       o<<<<< (ab) dotab        0.00
                       o<<<<< (ab) scat         0.00
                       o<<<<< (ab) sync         0.00
                       o<<<<< Density           0.00
                       o<<<<< Density one       0.00
                       o<<<<< Density two       0.00
                       o<<<<< Density ab        0.00
                       o<<<<< Spin adapt        0.24
                       o<<<<< Symm adapt        0.00

                       o<<<<< (ab) max sync:      0.00
       1.0000     -76.08659295 -1.51D-06 -1.51D-06  2.05D-05 6.9D-02      0.8
     --- Orbitals canonicalized ---



          %%%%% MacroIteration   2 %%%%%


          Number of sigma calls:       14
                       o<<<<< (aa):             0.00
                       o<<<<< (bb):             0.00
                       o<<<<< (ab):             0.04
                       o<<<<< (total)           0.04
                       o<<<<< (aa) ff           0.00
                       o<<<<< (aa) gop          0.00
                       o<<<<< (aa) dot          0.00
                       o<<<<< (ab) str          0.00
                       o<<<<< (ab) gath         0.00
                       o<<<<< (ab) dotab        0.00
                       o<<<<< (ab) scat         0.00
                       o<<<<< (ab) sync         0.00
                       o<<<<< Density           0.00
                       o<<<<< Density one       0.00
                       o<<<<< Density two       0.00
                       o<<<<< Density ab        0.00
                       o<<<<< Spin adapt        0.21
                       o<<<<< Symm adapt        0.00

                       o<<<<< (ab) max sync:      0.00

           >>>| Valence CI:            -83.920156707711
           >>>| MCSCF energy:          -76.086592951881
           >>>| Gradient norm:          0.121107256D-02
     --- Warning:    3 Hessian diagonals < 0.05 ---
     --- Conjugacy reset ---

                              ----- Line search ------

        step       energy         lsg     num-lsg   num-lsh   lsrat    time
      ------- ---------------- --------- --------- --------- ------- --------
       0.0000     -76.08659295 -5.20D-07  0.00D+00  0.00D+00 0.0D+00      1.1

          Number of sigma calls:       12
                       o<<<<< (aa):             0.00
                       o<<<<< (bb):             0.00
                       o<<<<< (ab):             0.03
                       o<<<<< (total)           0.03
                       o<<<<< (aa) ff           0.00
                       o<<<<< (aa) gop          0.00
                       o<<<<< (aa) dot          0.00
                       o<<<<< (ab) str          0.00
                       o<<<<< (ab) gath         0.00
                       o<<<<< (ab) dotab        0.00
                       o<<<<< (ab) scat         0.00
                       o<<<<< (ab) sync         0.00
                       o<<<<< Density           0.01
                       o<<<<< Density one       0.00
                       o<<<<< Density two       0.00
                       o<<<<< Density ab        0.01
                       o<<<<< Spin adapt        0.16
                       o<<<<< Symm adapt        0.00

                       o<<<<< (ab) max sync:      0.00
       1.0000     -76.08659331 -1.94D-07 -1.94D-07  3.25D-07 3.7D-01      1.3

          Number of sigma calls:       12
                       o<<<<< (aa):             0.00
                       o<<<<< (bb):             0.00
                       o<<<<< (ab):             0.03
                       o<<<<< (total)           0.03
                       o<<<<< (aa) ff           0.00
                       o<<<<< (aa) gop          0.00
                       o<<<<< (aa) dot          0.00
                       o<<<<< (ab) str          0.00
                       o<<<<< (ab) gath         0.00
                       o<<<<< (ab) dotab        0.00
                       o<<<<< (ab) scat         0.00
                       o<<<<< (ab) sync         0.00
                       o<<<<< Density           0.01
                       o<<<<< Density one       0.00
                       o<<<<< Density two       0.00
                       o<<<<< Density ab        0.01
                       o<<<<< Spin adapt        0.16
                       o<<<<< Symm adapt        0.00

                       o<<<<< (ab) max sync:      0.00
       1.5973     -76.08659337  4.93D-10  4.63D-10  3.26D-07 9.5D-04      1.6



          %%%%% MacroIteration   3 %%%%%


          Number of sigma calls:        1
                       o<<<<< (aa):             0.00
                       o<<<<< (bb):             0.00
                       o<<<<< (ab):             0.00
                       o<<<<< (total)           0.00
                       o<<<<< (aa) ff           0.00
                       o<<<<< (aa) gop          0.00
                       o<<<<< (aa) dot          0.00
                       o<<<<< (ab) str          0.00
                       o<<<<< (ab) gath         0.00
                       o<<<<< (ab) dotab        0.00
                       o<<<<< (ab) scat         0.00
                       o<<<<< (ab) sync         0.00
                       o<<<<< Density           0.00
                       o<<<<< Density one       0.00
                       o<<<<< Density two       0.00
                       o<<<<< Density ab        0.00
                       o<<<<< Spin adapt        0.00
                       o<<<<< Symm adapt        0.00

                       o<<<<< (ab) max sync:      0.00

           >>>| Valence CI:            -83.920157122594
           >>>| MCSCF energy:          -76.086593366764
           >>>| Gradient norm:          0.186191057D-03
     --- Warning:    3 Hessian diagonals < 0.05 ---

                              ----- Line search ------

        step       energy         lsg     num-lsg   num-lsh   lsrat    time
      ------- ---------------- --------- --------- --------- ------- --------
       0.0000     -76.08659337 -1.05D-08  0.00D+00  0.00D+00 0.0D+00      1.6

          Number of sigma calls:       10
                       o<<<<< (aa):             0.00
                       o<<<<< (bb):             0.00
                       o<<<<< (ab):             0.03
                       o<<<<< (total)           0.03
                       o<<<<< (aa) ff           0.00
                       o<<<<< (aa) gop          0.00
                       o<<<<< (aa) dot          0.00
                       o<<<<< (ab) str          0.00
                       o<<<<< (ab) gath         0.00
                       o<<<<< (ab) dotab        0.00
                       o<<<<< (ab) scat         0.00
                       o<<<<< (ab) sync         0.00
                       o<<<<< Density           0.00
                       o<<<<< Density one       0.00
                       o<<<<< Density two       0.00
                       o<<<<< Density ab        0.00
                       o<<<<< Spin adapt        0.14
                       o<<<<< Symm adapt        0.00

                       o<<<<< (ab) max sync:      0.00
       1.0000     -76.08659337 -1.63D-09 -1.63D-09  8.91D-09 1.5D-01      1.8

          Number of sigma calls:        8
                       o<<<<< (aa):             0.00
                       o<<<<< (bb):             0.00
                       o<<<<< (ab):             0.02
                       o<<<<< (total)           0.03
                       o<<<<< (aa) ff           0.00
                       o<<<<< (aa) gop          0.00
                       o<<<<< (aa) dot          0.00
                       o<<<<< (ab) str          0.00
                       o<<<<< (ab) gath         0.00
                       o<<<<< (ab) dotab        0.00
                       o<<<<< (ab) scat         0.00
                       o<<<<< (ab) sync         0.00
                       o<<<<< Density           0.01
                       o<<<<< Density one       0.00
                       o<<<<< Density two       0.00
                       o<<<<< Density ab        0.01
                       o<<<<< Spin adapt        0.12
                       o<<<<< Symm adapt        0.00

                       o<<<<< (ab) max sync:      0.00
       1.1833     -76.08659337  5.59D-14 -8.19D-13  8.91D-09 5.3D-06      2.0



          %%%%% MacroIteration   4 %%%%%


          Number of sigma calls:        1
                       o<<<<< (aa):             0.00
                       o<<<<< (bb):             0.00
                       o<<<<< (ab):             0.00
                       o<<<<< (total)           0.00
                       o<<<<< (aa) ff           0.00
                       o<<<<< (aa) gop          0.00
                       o<<<<< (aa) dot          0.00
                       o<<<<< (ab) str          0.00
                       o<<<<< (ab) gath         0.00
                       o<<<<< (ab) dotab        0.00
                       o<<<<< (ab) scat         0.00
                       o<<<<< (ab) sync         0.00
                       o<<<<< Density           0.01
                       o<<<<< Density one       0.00
                       o<<<<< Density two       0.00
                       o<<<<< Density ab        0.01
                       o<<<<< Spin adapt        0.00
                       o<<<<< Symm adapt        0.00

                       o<<<<< (ab) max sync:      0.00

           >>>| Valence CI:            -83.920157128833
           >>>| MCSCF energy:          -76.086593373003
           >>>| Gradient norm:          0.318521789D-04




     ==============================
            MCSCF Converged
     ==============================



          Canonical Eigenvalues

              1      
    1  -20.5840
    2   -1.3075
    3   -0.6831
    4   -0.5569
    5   -0.5256
    6   -0.0451
    7   -0.0263
    8   -0.0165
    9    0.0749
   10    0.0870
   11    0.2367
   12    0.2807
   13    0.3195
   14    0.4823
   15    0.5002
   16    0.6554
   17    1.0288
   18    1.1803
   19    1.4761
   20    1.5671
   21    1.6091
   22    1.6933
   23    1.7005
   24    2.0098
   25    2.2823
   26    2.7421
   27    2.8226
   28    3.2461
   29    3.4776
   30    3.4929
   31    3.8448
   32    4.1799
   33    5.3429
   34    5.5470
   35    5.9639
   36   51.5068


          Converged CI vector

   Index           Coefficient          Config. Occupation
         1         -0.96130096          1  2  3  4  5  1  2  3  4  5
        22         -0.07841068          1  2  3  4  5  1  2  3  4  8
         3          0.06169230          1  2  3  4  5  1  2  3  5  6
         8         -0.02323707          1  2  3  4  5  1  2  3  5  7
        27          0.02214970          1  2  3  4  5  1  2  3  6  8
         4         -0.02758137          1  2  3  4  5  1  2  4  5  6
         9         -0.04253776          1  2  3  4  5  1  2  4  5  7
        38         -0.02319360          1  2  3  4  5  1  2  4  7  8
      1177         -0.07841068          1  2  3  4  8  1  2  3  4  5
      1198          0.05526116          1  2  3  4  8  1  2  3  4  8
      1179         -0.03074650          1  2  3  4  8  1  2  3  5  6
      1185          0.03085805          1  2  3  4  8  1  2  4  5  7
       113          0.06169230          1  2  3  5  6  1  2  3  4  5
       134         -0.03074650          1  2  3  5  6  1  2  3  4  8
       115          0.10772939          1  2  3  5  6  1  2  3  5  6
       116         -0.05925955          1  2  3  5  6  1  2  4  5  6
       121         -0.02115012          1  2  3  5  6  1  2  4  5  7
       117          0.02252340          1  2  3  5  6  1  3  4  5  6
       393         -0.02323707          1  2  3  5  7  1  2  3  4  5
       401          0.02291422          1  2  3  5  7  1  2  4  5  7
      1457          0.02214970          1  2  3  6  8  1  2  3  4  5
       169         -0.02758137          1  2  4  5  6  1  2  3  4  5
       171         -0.05925955          1  2  4  5  6  1  2  3  5  6
       172          0.04618795          1  2  4  5  6  1  2  4  5  6
       449         -0.04253776          1  2  4  5  7  1  2  3  4  5
       470          0.03085805          1  2  4  5  7  1  2  3  4  8
       451         -0.02115012          1  2  4  5  7  1  2  3  5  6
       456          0.02291422          1  2  4  5  7  1  2  3  5  7
       457          0.05840904          1  2  4  5  7  1  2  4  5  7
       458          0.02597343          1  2  4  5  7  1  3  4  5  7
      2073         -0.02319360          1  2  4  7  8  1  2  3  4  5
       227          0.02252340          1  3  4  5  6  1  2  3  5  6
       229          0.02264894          1  3  4  5  6  1  3  4  5  6
       513          0.02597343          1  3  4  5  7  1  2  4  5  7
       514          0.02529442          1  3  4  5  7  1  3  4  5  7

          Number of sigma calls:        1
                       o<<<<< (aa):             0.00
                       o<<<<< (bb):             0.00
                       o<<<<< (ab):             0.00
                       o<<<<< (total)           0.00
                       o<<<<< (aa) ff           0.00
                       o<<<<< (aa) gop          0.00
                       o<<<<< (aa) dot          0.00
                       o<<<<< (ab) str          0.00
                       o<<<<< (ab) gath         0.00
                       o<<<<< (ab) dotab        0.00
                       o<<<<< (ab) scat         0.00
                       o<<<<< (ab) sync         0.00
                       o<<<<< Density           0.00
                       o<<<<< Density one       0.00
                       o<<<<< Density two       0.00
                       o<<<<< Density ab        0.00
                       o<<<<< Spin adapt        0.00
                       o<<<<< Symm adapt        0.00

                       o<<<<< (ab) max sync:      0.00



          Natural orbital occupation numbers

              1      
    1    2.0000
    2    1.9982
    3    1.9783
    4    1.9740
    5    1.9388
    6    0.0629
    7    0.0267
    8    0.0211


          Number of sigma calls:       16
                       o<<<<< (aa):             0.00
                       o<<<<< (bb):             0.00
                       o<<<<< (ab):             0.05
                       o<<<<< (total)           0.05
                       o<<<<< (aa) ff           0.00
                       o<<<<< (aa) gop          0.00
                       o<<<<< (aa) dot          0.00
                       o<<<<< (ab) str          0.00
                       o<<<<< (ab) gath         0.00
                       o<<<<< (ab) dotab        0.00
                       o<<<<< (ab) scat         0.00
                       o<<<<< (ab) sync         0.00
                       o<<<<< Density           0.00
                       o<<<<< Density one       0.00
                       o<<<<< Density two       0.00
                       o<<<<< Density ab        0.00
                       o<<<<< Spin adapt        0.25
                       o<<<<< Symm adapt        0.00

                       o<<<<< (ab) max sync:      0.00


       Final MCSCF results 
       ------------------- 

       Total MCSCF energy =    -76.086593373003
            Gradient norm =      3.2D-05

    CPU time for solution =      2.4s
   Wall time for solution =      4.3s



                        Analysis of MCSCF natural orbitals
                        ----------------------------------

 Vector    1  Occ=1.999991D+00  E=-2.058401D+01  Symmetry=a
              MO Center= -9.1D-02, -9.7D-02,  9.1D-14, r^2= 1.5D-02
   Bfn.  Coefficient  Atom+Function         Bfn.  Coefficient  Atom+Function  
  ----- ------------  ---------------      ----- ------------  ---------------
     1      0.557801  1 O  s                  2      0.483275  1 O  s          

 Vector    2  Occ=1.998239D+00  E=-1.307526D+00  Symmetry=a
              MO Center= -2.9D-01, -1.9D-01, -2.8D-11, r^2= 4.3D-01
   Bfn.  Coefficient  Atom+Function         Bfn.  Coefficient  Atom+Function  
  ----- ------------  ---------------      ----- ------------  ---------------
     6      0.581794  1 O  s                 10      0.498881  1 O  s          
     2     -0.169407  1 O  s          

 Vector    3  Occ=1.978282D+00  E=-6.831218D-01  Symmetry=a
              MO Center= -7.3D-02, -9.5D-02,  3.0D-11, r^2= 7.1D-01
   Bfn.  Coefficient  Atom+Function         Bfn.  Coefficient  Atom+Function  
  ----- ------------  ---------------      ----- ------------  ---------------
     9      0.438481  1 O  pz                13      0.408109  1 O  pz         
     5      0.291603  1 O  pz         

 Vector    4  Occ=1.974035D+00  E=-5.568803D-01  Symmetry=a
              MO Center=  3.3D-01, -2.2D-01, -3.3D-13, r^2= 6.2D-01
   Bfn.  Coefficient  Atom+Function         Bfn.  Coefficient  Atom+Function  
  ----- ------------  ---------------      ----- ------------  ---------------
     7      0.350435  1 O  px                31      0.277074  3 H  s          
    11      0.234948  1 O  px                 3      0.232906  1 O  px         
    30      0.191440  3 H  s          

 Vector    5  Occ=1.938791D+00  E=-5.255951D-01  Symmetry=a
              MO Center= -4.9D-02,  4.6D-01, -3.8D-13, r^2= 8.7D-01
   Bfn.  Coefficient  Atom+Function         Bfn.  Coefficient  Atom+Function  
  ----- ------------  ---------------      ----- ------------  ---------------
     8      0.336942  1 O  py                24      0.284660  2 H  s          
    12      0.259250  1 O  py                 4      0.216027  1 O  py         
    23      0.151205  2 H  s          

 Vector    6  Occ=6.285685D-02  E=-4.505856D-02  Symmetry=a
              MO Center= -5.5D-02,  7.0D-01, -8.5D-13, r^2= 8.6D-01
   Bfn.  Coefficient  Atom+Function         Bfn.  Coefficient  Atom+Function  
  ----- ------------  ---------------      ----- ------------  ---------------
    24     -0.503372  2 H  s                  8      0.479788  1 O  py         
     4      0.332894  1 O  py                 6      0.264118  1 O  s          
    23     -0.244068  2 H  s          

 Vector    7  Occ=2.671280D-02  E=-2.628380D-02  Symmetry=a
              MO Center=  5.1D-01, -2.8D-01,  3.4D-12, r^2= 6.8D-01
   Bfn.  Coefficient  Atom+Function         Bfn.  Coefficient  Atom+Function  
  ----- ------------  ---------------      ----- ------------  ---------------
    31      0.567197  3 H  s                  7     -0.510237  1 O  px         
     3     -0.409903  1 O  px                 6     -0.379210  1 O  s          
    30      0.291903  3 H  s          

 Vector    8  Occ=2.109279D-02  E=-1.653683D-02  Symmetry=a
              MO Center= -5.4D-02, -8.6D-02,  4.7D-11, r^2= 1.5D+00
   Bfn.  Coefficient  Atom+Function         Bfn.  Coefficient  Atom+Function  
  ----- ------------  ---------------      ----- ------------  ---------------
    13      0.648171  1 O  pz                 5     -0.486114  1 O  pz         
     9     -0.470210  1 O  pz                17      0.310718  1 O  pz         

 Vector    9  Occ=0.000000D+00  E= 7.486092D-02  Symmetry=a
              MO Center=  5.6D-01,  5.4D-01,  3.2D-12, r^2= 1.1D+01
   Bfn.  Coefficient  Atom+Function         Bfn.  Coefficient  Atom+Function  
  ----- ------------  ---------------      ----- ------------  ---------------
    26      1.028511  2 H  s                 33      1.007295  3 H  s          
    14     -0.632959  1 O  s                 25     -0.578754  2 H  s          
    32     -0.407664  3 H  s                 10      0.242559  1 O  s          

 Vector   10  Occ=0.000000D+00  E= 8.696824D-02  Symmetry=a
              MO Center=  5.1D-01,  4.6D-01, -3.1D-12, r^2= 1.4D+01
   Bfn.  Coefficient  Atom+Function         Bfn.  Coefficient  Atom+Function  
  ----- ------------  ---------------      ----- ------------  ---------------
    33     -2.324259  3 H  s                 26      2.282303  2 H  s          
    25     -0.589419  2 H  s                 32      0.406171  3 H  s          
    16     -0.247608  1 O  py                15      0.220044  1 O  px         
    14      0.200348  1 O  s          

 Vector   11  Occ=0.000000D+00  E= 2.367295D-01  Symmetry=a
              MO Center= -4.8D-01, -1.4D-01,  3.6D-12, r^2= 5.4D+00
   Bfn.  Coefficient  Atom+Function         Bfn.  Coefficient  Atom+Function  
  ----- ------------  ---------------      ----- ------------  ---------------
    32      2.718063  3 H  s                 14     -2.198162  1 O  s          
    15     -1.968573  1 O  px                25      1.216886  2 H  s          
    16     -0.722793  1 O  py                11      0.344146  1 O  px         
    33     -0.343537  3 H  s                 10     -0.272536  1 O  s          
    12      0.243240  1 O  py                26     -0.182076  2 H  s          

 Vector   12  Occ=0.000000D+00  E= 2.806835D-01  Symmetry=a
              MO Center= -3.6D-01, -3.9D-01,  5.4D-13, r^2= 5.9D+00
   Bfn.  Coefficient  Atom+Function         Bfn.  Coefficient  Atom+Function  
  ----- ------------  ---------------      ----- ------------  ---------------
    32      3.140922  3 H  s                 16      2.486289  1 O  py         
    25     -2.026147  2 H  s                 15     -1.816257  1 O  px         
    14     -1.367675  1 O  s                 33      0.673470  3 H  s          
    26     -0.443263  2 H  s                 12     -0.380165  1 O  py         
    31     -0.255684  3 H  s                 11      0.179422  1 O  px         

 Vector   13  Occ=0.000000D+00  E= 3.194782D-01  Symmetry=a
              MO Center=  2.0D-01,  1.3D-01, -9.8D-11, r^2= 5.4D+00
   Bfn.  Coefficient  Atom+Function         Bfn.  Coefficient  Atom+Function  
  ----- ------------  ---------------      ----- ------------  ---------------
    14      6.568213  1 O  s                 32     -3.883773  3 H  s          
    25     -2.507076  2 H  s                 15      1.585720  1 O  px         
    10     -1.166760  1 O  s                 16      0.602876  1 O  py         
    33     -0.468383  3 H  s                 31      0.232535  3 H  s          
    24      0.159643  2 H  s          

 Vector   14  Occ=0.000000D+00  E= 4.823285D-01  Symmetry=a
              MO Center= -6.1D-02,  1.4D+00, -7.4D-13, r^2= 5.2D+00
   Bfn.  Coefficient  Atom+Function         Bfn.  Coefficient  Atom+Function  
  ----- ------------  ---------------      ----- ------------  ---------------
    25      3.177286  2 H  s                 26     -1.706331  2 H  s          
    32     -1.705472  3 H  s                 24     -1.378410  2 H  s          
    33      0.975482  3 H  s                 31      0.484937  3 H  s          
    14      0.312171  1 O  s                 10     -0.292350  1 O  s          
    16     -0.211993  1 O  py                15      0.180102  1 O  px         

 Vector   15  Occ=0.000000D+00  E= 5.002325D-01  Symmetry=a
              MO Center=  1.2D+00, -5.2D-01, -3.2D-13, r^2= 4.6D+00
   Bfn.  Coefficient  Atom+Function         Bfn.  Coefficient  Atom+Function  
  ----- ------------  ---------------      ----- ------------  ---------------
    32      4.015559  3 H  s                 31     -1.463862  3 H  s          
    14     -1.384364  1 O  s                 33     -1.281144  3 H  s          
    25      0.844816  2 H  s                 15     -0.515105  1 O  px         
    24     -0.499622  2 H  s                 10     -0.308479  1 O  s          
     7      0.154471  1 O  px         

 Vector   16  Occ=0.000000D+00  E= 6.554056D-01  Symmetry=a
              MO Center= -8.5D-02, -9.8D-02,  7.3D-11, r^2= 5.3D+00
   Bfn.  Coefficient  Atom+Function         Bfn.  Coefficient  Atom+Function  
  ----- ------------  ---------------      ----- ------------  ---------------
    13      1.438514  1 O  pz                17     -1.442275  1 O  pz         
     9     -0.451388  1 O  pz         

 Vector   17  Occ=0.000000D+00  E= 1.028758D+00  Symmetry=a
              MO Center= -3.2D-01,  1.5D-01,  8.8D-13, r^2= 2.5D+00
   Bfn.  Coefficient  Atom+Function         Bfn.  Coefficient  Atom+Function  
  ----- ------------  ---------------      ----- ------------  ---------------
    32      2.443212  3 H  s                 11      2.317524  1 O  px         
    14     -2.271688  1 O  s                 31     -2.105816  3 H  s          
    15     -1.777459  1 O  px                10      1.461583  1 O  s          
     7     -0.458142  1 O  px                12     -0.446029  1 O  py         
    25      0.396202  2 H  s                 16      0.382139  1 O  py         

 Vector   18  Occ=0.000000D+00  E= 1.180299D+00  Symmetry=a
              MO Center= -2.2D-02, -4.0D-01, -3.1D-13, r^2= 2.4D+00
   Bfn.  Coefficient  Atom+Function         Bfn.  Coefficient  Atom+Function  
  ----- ------------  ---------------      ----- ------------  ---------------
    12      2.124808  1 O  py                16     -1.470500  1 O  py         
    25      1.174575  2 H  s                 24     -1.112875  2 H  s          
     8     -0.732029  1 O  py                14     -0.462525  1 O  s          
    33     -0.460966  3 H  s                 31      0.344606  3 H  s          
    26      0.314854  2 H  s                 28      0.172106  2 H  py         


 Wrote Lagrangian and 1- and 2-particle density matrices to ./H2O.mcpdm


     Multipole analysis of the density
     ---------------------------------

     L   x y z        total        nuclear
     -   - - -        -----        -------
     0   0 0 0     -0.000000     10.000000

     1   1 0 0      0.628835     -0.000000
     1   0 1 0      0.494038     -0.000000
     1   0 0 1     -0.000000      0.000000

     2   2 0 0     -4.537183      2.679864
     2   1 1 0     -0.904048     -1.436728
     2   1 0 1      0.000000      0.000000
     2   0 2 0     -3.168515      6.275517
     2   0 1 1      0.000000      0.000000
     2   0 0 2     -6.089810      0.000000


  Mulliken analysis of the total density
  --------------------------------------

    Atom       Charge   Shell Charges
 -----------   ------   -------------------------------------------------------
    1 O    8     8.50   1.08  0.91  0.92  1.02  1.99  0.84  1.56 -0.03  0.20  0.01
    2 H    1     0.74   0.17  0.43  0.11  0.01  0.03
    3 H    1     0.75   0.26  0.40  0.02  0.01  0.06

    Mulliken analysis of the active space density
    ---------------------------------------------

    Atom       Charge   Shell Charges
 -----------   ------   -------------------------------------------------------
    1 O    8     8.50   1.08  0.91  0.92  1.02  1.99  0.84  1.56 -0.03  0.20  0.01
    2 H    1     0.74   0.17  0.43  0.11  0.01  0.03
    3 H    1     0.75   0.26  0.40  0.02  0.01  0.06

 Parallel integral file used       3 records with       0 large values


 Task  times  cpu:        2.4s     wall:        4.3s


                                NWChem Input Module
                                -------------------


                                 NWChem SCF Module
                                 -----------------


                                        H2O



  ao basis        = "ao basis"
  functions       =    36
  atoms           =     3
  closed shells   =     5
  open shells     =     0
  charge          =   0.00
  wavefunction    = RHF 
  input vectors   = ./h2o.mos
  output vectors  = ./h2o-trash.mos
  use symmetry    = F
  symmetry adapt  = F


 Summary of "ao basis" -> "ao basis" (spherical)
 ------------------------------------------------------------------------------
       Tag                 Description            Shells   Functions and Types
 ---------------- ------------------------------  ------  ---------------------
 O                         6-311++G**               10       22   5s4p1d
 H                         6-311++G**                5        7   4s1p



 Forming initial guess at       4.4s


 Loading old vectors from job with title :

H2O


 Starting SCF solution at       4.4s



 ----------------------------------------------
         Quadratically convergent ROHF

 Convergence threshold     :          1.000E-04
 Maximum no. of iterations :           30
 Final Fock-matrix accuracy:          1.000E-07
 ----------------------------------------------


 Integral file          = ./H2O.aoints.0
 Record size in doubles =  65536        No. of integs per rec  =  43688
 Max. records in memory =     10        Max. records in file   = 232510
 No. of bits per label  =      8        No. of bits per value  =     64


 #quartets = 2.216D+04 #integrals = 1.002D+05 #direct =  0.0% #cached =100.0%



       Final RHF  results 
       ------------------ 

         Total SCF energy =    -75.971937081770
      One-electron energy =   -120.423178839259
      Two-electron energy =     36.617678001659
 Nuclear repulsion energy =      7.833563755830

        Time for solution =      0.0s


             Final eigenvalues
             -----------------

              1      
    1  -20.5840
    2   -1.3075
    3   -0.6831
    4   -0.5569
    5   -0.5256
    6   -0.0451
    7   -0.0263
    8   -0.0165
    9    0.0749
   10    0.0870
   11    0.2367
   12    0.2807
   13    0.3195
   14    0.4823
   15    0.5002

                       ROHF Final Molecular Orbital Analysis
                       -------------------------------------

 Vector    2  Occ=2.000000D+00  E=-1.307526D+00
              MO Center= -2.9D-01, -1.9D-01, -2.8D-11, r^2= 4.3D-01
   Bfn.  Coefficient  Atom+Function         Bfn.  Coefficient  Atom+Function  
  ----- ------------  ---------------      ----- ------------  ---------------
     6      0.581794  1 O  s                 10      0.498881  1 O  s          
     2     -0.169407  1 O  s          

 Vector    3  Occ=2.000000D+00  E=-6.831218D-01
              MO Center= -7.3D-02, -9.5D-02,  3.0D-11, r^2= 7.1D-01
   Bfn.  Coefficient  Atom+Function         Bfn.  Coefficient  Atom+Function  
  ----- ------------  ---------------      ----- ------------  ---------------
     9      0.438481  1 O  pz                13      0.408109  1 O  pz         
     5      0.291603  1 O  pz         

 Vector    4  Occ=2.000000D+00  E=-5.568803D-01
              MO Center=  3.3D-01, -2.2D-01, -3.3D-13, r^2= 6.2D-01
   Bfn.  Coefficient  Atom+Function         Bfn.  Coefficient  Atom+Function  
  ----- ------------  ---------------      ----- ------------  ---------------
     7      0.350435  1 O  px                31      0.277074  3 H  s          
    11      0.234948  1 O  px                 3      0.232906  1 O  px         
    30      0.191440  3 H  s          

 Vector    5  Occ=2.000000D+00  E=-5.255951D-01
              MO Center= -4.9D-02,  4.6D-01, -3.8D-13, r^2= 8.7D-01
   Bfn.  Coefficient  Atom+Function         Bfn.  Coefficient  Atom+Function  
  ----- ------------  ---------------      ----- ------------  ---------------
     8      0.336942  1 O  py                24      0.284660  2 H  s          
    12      0.259250  1 O  py                 4      0.216027  1 O  py         
    23      0.151205  2 H  s          

 Vector    6  Occ=0.000000D+00  E=-4.505856D-02
              MO Center= -5.5D-02,  7.0D-01, -8.5D-13, r^2= 8.6D-01
   Bfn.  Coefficient  Atom+Function         Bfn.  Coefficient  Atom+Function  
  ----- ------------  ---------------      ----- ------------  ---------------
    24     -0.503372  2 H  s                  8      0.479788  1 O  py         
     4      0.332894  1 O  py                 6      0.264118  1 O  s          
    23     -0.244068  2 H  s          

 Vector    7  Occ=0.000000D+00  E=-2.628380D-02
              MO Center=  5.1D-01, -2.8D-01,  3.4D-12, r^2= 6.8D-01
   Bfn.  Coefficient  Atom+Function         Bfn.  Coefficient  Atom+Function  
  ----- ------------  ---------------      ----- ------------  ---------------
    31      0.567197  3 H  s                  7     -0.510237  1 O  px         
     3     -0.409903  1 O  px                 6     -0.379210  1 O  s          
    30      0.291903  3 H  s          

 Vector    8  Occ=0.000000D+00  E=-1.653683D-02
              MO Center= -5.4D-02, -8.6D-02,  4.7D-11, r^2= 1.5D+00
   Bfn.  Coefficient  Atom+Function         Bfn.  Coefficient  Atom+Function  
  ----- ------------  ---------------      ----- ------------  ---------------
    13      0.648171  1 O  pz                 5     -0.486114  1 O  pz         
     9     -0.470210  1 O  pz                17      0.310718  1 O  pz         

 Vector    9  Occ=0.000000D+00  E= 7.486092D-02
              MO Center=  5.6D-01,  5.4D-01,  3.2D-12, r^2= 1.1D+01
   Bfn.  Coefficient  Atom+Function         Bfn.  Coefficient  Atom+Function  
  ----- ------------  ---------------      ----- ------------  ---------------
    26      1.028511  2 H  s                 33      1.007295  3 H  s          
    14     -0.632959  1 O  s                 25     -0.578754  2 H  s          
    32     -0.407664  3 H  s                 10      0.242559  1 O  s          

 Vector   10  Occ=0.000000D+00  E= 8.696824D-02
              MO Center=  5.1D-01,  4.6D-01, -3.1D-12, r^2= 1.4D+01
   Bfn.  Coefficient  Atom+Function         Bfn.  Coefficient  Atom+Function  
  ----- ------------  ---------------      ----- ------------  ---------------
    33     -2.324259  3 H  s                 26      2.282303  2 H  s          
    25     -0.589419  2 H  s                 32      0.406171  3 H  s          
    16     -0.247608  1 O  py                15      0.220044  1 O  px         
    14      0.200348  1 O  s          

 Vector   11  Occ=0.000000D+00  E= 2.367295D-01
              MO Center= -4.8D-01, -1.4D-01,  3.6D-12, r^2= 5.4D+00
   Bfn.  Coefficient  Atom+Function         Bfn.  Coefficient  Atom+Function  
  ----- ------------  ---------------      ----- ------------  ---------------
    32      2.718063  3 H  s                 14     -2.198162  1 O  s          
    15     -1.968573  1 O  px                25      1.216886  2 H  s          
    16     -0.722793  1 O  py                11      0.344146  1 O  px         
    33     -0.343537  3 H  s                 10     -0.272536  1 O  s          
    12      0.243240  1 O  py                26     -0.182076  2 H  s          

 Vector   12  Occ=0.000000D+00  E= 2.806835D-01
              MO Center= -3.6D-01, -3.9D-01,  5.4D-13, r^2= 5.9D+00
   Bfn.  Coefficient  Atom+Function         Bfn.  Coefficient  Atom+Function  
  ----- ------------  ---------------      ----- ------------  ---------------
    32      3.140922  3 H  s                 16      2.486289  1 O  py         
    25     -2.026147  2 H  s                 15     -1.816257  1 O  px         
    14     -1.367675  1 O  s                 33      0.673470  3 H  s          
    26     -0.443263  2 H  s                 12     -0.380165  1 O  py         
    31     -0.255684  3 H  s                 11      0.179422  1 O  px         

 Vector   13  Occ=0.000000D+00  E= 3.194782D-01
              MO Center=  2.0D-01,  1.3D-01, -9.8D-11, r^2= 5.4D+00
   Bfn.  Coefficient  Atom+Function         Bfn.  Coefficient  Atom+Function  
  ----- ------------  ---------------      ----- ------------  ---------------
    14      6.568213  1 O  s                 32     -3.883773  3 H  s          
    25     -2.507076  2 H  s                 15      1.585720  1 O  px         
    10     -1.166760  1 O  s                 16      0.602876  1 O  py         
    33     -0.468383  3 H  s                 31      0.232535  3 H  s          
    24      0.159643  2 H  s          

 Vector   14  Occ=0.000000D+00  E= 4.823285D-01
              MO Center= -6.1D-02,  1.4D+00, -7.4D-13, r^2= 5.2D+00
   Bfn.  Coefficient  Atom+Function         Bfn.  Coefficient  Atom+Function  
  ----- ------------  ---------------      ----- ------------  ---------------
    25      3.177286  2 H  s                 26     -1.706331  2 H  s          
    32     -1.705472  3 H  s                 24     -1.378410  2 H  s          
    33      0.975482  3 H  s                 31      0.484937  3 H  s          
    14      0.312171  1 O  s                 10     -0.292350  1 O  s          
    16     -0.211993  1 O  py                15      0.180102  1 O  px         

 Vector   15  Occ=0.000000D+00  E= 5.002325D-01
              MO Center=  1.2D+00, -5.2D-01, -3.2D-13, r^2= 4.6D+00
   Bfn.  Coefficient  Atom+Function         Bfn.  Coefficient  Atom+Function  
  ----- ------------  ---------------      ----- ------------  ---------------
    32      4.015559  3 H  s                 31     -1.463862  3 H  s          
    14     -1.384364  1 O  s                 33     -1.281144  3 H  s          
    25      0.844816  2 H  s                 15     -0.515105  1 O  px         
    24     -0.499622  2 H  s                 10     -0.308479  1 O  s          
     7      0.154471  1 O  px         


 center of mass
 --------------
 x =  -0.07599894 y =  -0.08104083 z =   0.00000000

 moments of inertia (a.u.)
 ------------------
           6.474909513230           1.307033530628           0.000000000000
           1.307033530628           2.833002082974           0.000000000000
           0.000000000000           0.000000000000           9.307911596204

  Mulliken analysis of the total density
  --------------------------------------

    Atom       Charge   Shell Charges
 -----------   ------   -------------------------------------------------------
    1 O    8     8.51   1.08  0.91  0.91  1.02  2.00  0.85  1.58 -0.03  0.19  0.01
    2 H    1     0.74   0.16  0.42  0.12  0.01  0.03
    3 H    1     0.75   0.26  0.40  0.02  0.01  0.07

       Multipole analysis of the density wrt the origin
       ------------------------------------------------

     L   x y z        total         open         nuclear
     -   - - -        -----         ----         -------
     0   0 0 0     -0.000000      0.000000     10.000000

     1   1 0 0      0.639199      0.000000     -0.000000
     1   0 1 0      0.521268      0.000000     -0.000000
     1   0 0 1     -0.000000      0.000000      0.000000

     2   2 0 0     -4.511360      0.000000      2.679864
     2   1 1 0     -0.920975      0.000000     -1.436728
     2   1 0 1      0.000000      0.000000      0.000000
     2   0 2 0     -3.078892      0.000000      6.275517
     2   0 1 1      0.000000      0.000000      0.000000
     2   0 0 2     -6.059933      0.000000      0.000000


 Parallel integral file used       3 records with       0 large values

                   NWChem Extensible Many-Electron Theory Module
                   ---------------------------------------------

              ======================================================
                   This portion of the program was automatically
                  generated by a Tensor Contraction Engine (TCE).
                  The development of this portion of the program
                 and TCE was supported by US Department of Energy,
                Office of Science, Office of Basic Energy Science.
                      TCE is a product of Battelle and PNNL.
              Please cite: S.Hirata, J.Phys.Chem.A 107, 9887 (2003).
              ======================================================

                                        H2O


            General Information
            -------------------
      Number of processors :     1
         Wavefunction type : Restricted Hartree-Fock
          No. of electrons :    10
           Alpha electrons :     5
            Beta electrons :     5
           No. of orbitals :    72
            Alpha orbitals :    36
             Beta orbitals :    36
        Alpha frozen cores :     0
         Beta frozen cores :     0
     Alpha frozen virtuals :     0
      Beta frozen virtuals :     0
         Spin multiplicity : singlet 
    Number of AO functions :    36
       Number of AO shells :    20
        Use of symmetry is : off
      Symmetry adaption is : off
         Schwarz screening : 0.10D-09

          Correlation Information
          -----------------------
          Calculation type : Coupled-cluster singles & doubles                           
   Perturbative correction : none                                                        
            Max iterations :      300
        Residual threshold : 0.10D-06
     T(0) DIIS level shift : 0.00D+00
     L(0) DIIS level shift : 0.00D+00
     T(1) DIIS level shift : 0.00D+00
     L(1) DIIS level shift : 0.00D+00
     T(R) DIIS level shift : 0.00D+00
     T(I) DIIS level shift : 0.00D+00
   CC-T/L Amplitude update :  5-th order DIIS
                I/O scheme : Global Array Library
        L-threshold :  0.10D-06
        EOM-threshold :  0.10D-06
 no EOMCCSD initial starts read in
 TCE RESTART OPTIONS
 READ_INT:   F
 WRITE_INT:  F
 READ_TA:    F
 WRITE_TA:   F
 READ_XA:    F
 WRITE_XA:   F
 READ_IN3:   F
 WRITE_IN3:  F
 SLICE:      F
 D4D5:       F
 quantumc:   F
 qrotation:  F
 pwtce:      F
 qducc:      T
 nacto:                         0
 nrotv:                         0
 nrot:                          0

            Memory Information
            ------------------
          Available GA space size is    1610611440 doubles
          Available MA space size is    1610610740 doubles

 Maximum block size        32 doubles

 tile_dim =     31

 Block   Spin    Irrep     Size     Offset   Alpha
 -------------------------------------------------
   1    alpha     a      5 doubles       0       1
   2    beta      a      5 doubles       5       1
   3    alpha     a     31 doubles      10       3
   4    beta      a     31 doubles      41       3

 Global array virtual files algorithm will be used

 Parallel file system coherency ......... OK

 Integral file          = ./H2O.aoints.0
 Record size in doubles =  65536        No. of integs per rec  =  43688
 Max. records in memory =     10        Max. records in file   = 232510
 No. of bits per label  =      8        No. of bits per value  =     64


 #quartets = 2.216D+04 #integrals = 1.003D+05 #direct =  0.0% #cached =100.0%


 Fock matrix recomputed
 1-e file size   =             1296
 1-e file name   = ./H2O.f1
 Cpu & wall time / sec            0.0            0.0
 4-electron integrals stored in orbital form

 v2    file size   =          1125026
 4-index algorithm nr.  13 is used
 imaxsize =       30
 imaxsize ichop =        0
 Cpu & wall time / sec            0.2            0.2
 T1-number-of-tasks                    1

 t1 file size   =              155
 t1 file name   = ./H2O.t1
 t1 file handle =       -998
 T2-number-of-boxes                    2

 t2 file size   =            48050
 t2 file name   = ./H2O.t2
 t2 file handle =       -996
CCSD iterations
 ---------------------------------------------------------
 Iter          Residuum       Correlation     Cpu    Wall 
 ---------------------------------------------------------
NEW TASK SCHEDULING
CCSD_T1_NTS --- OK
CCSD_T2_NTS --- OK
    1   0.9593473397678  -0.4173080340920     0.0     0.0
    2   1.5683773384051   0.0077749181243     0.0     0.0
    3   2.6985096739738  -0.7203391832509     0.0     0.0
    4   4.8554540021593   0.4952521728165     0.0     0.0
    5   7.5028678797671  -1.5834019394563     0.0     0.0
 MICROCYCLE DIIS UPDATE:                    5                    5
    6   0.0455799070096  -0.2631853629789     0.0     0.0
    7   0.0490234142754  -0.2584353708853     0.0     0.0
    8   0.0807520350594  -0.2659281121402     0.0     0.0
    9   0.1446632167277  -0.2508352015935     0.0     0.0
   10   0.2763431722299  -0.2425431991465     0.0     0.0
 MICROCYCLE DIIS UPDATE:                   10                    5
   11   0.0035059346863  -0.2631212578408     0.0     0.0
   12   0.0028523806109  -0.2636496259795     0.0     0.0
   13   0.0042006365260  -0.2627891888246     0.0     0.0
   14   0.0069836371408  -0.2642562010444     0.0     0.0
   15   0.0119628504786  -0.2619079632771     0.0     0.0
 MICROCYCLE DIIS UPDATE:                   15                    5
   16   0.0003312205785  -0.2633906423028     0.0     0.0
   17   0.0002856664192  -0.2633563504271     0.0     0.0
   18   0.0004568542670  -0.2634237300156     0.0     0.0
   19   0.0008600540751  -0.2632979173685     0.0     0.0
   20   0.0016848376770  -0.2635407110466     0.0     0.0
 MICROCYCLE DIIS UPDATE:                   20                    5
   21   0.0000427314144  -0.2633806762599     0.0     0.0
   22   0.0000276015105  -0.2633831182798     0.0     0.0
   23   0.0000335955197  -0.2633782222586     0.0     0.0
   24   0.0000510271638  -0.2633872279760     0.0     0.0
   25   0.0000888223153  -0.2633723825644     0.0     0.0
 MICROCYCLE DIIS UPDATE:                   25                    5
   26   0.0000063498919  -0.2633820239903     0.0     0.0
   27   0.0000054598751  -0.2633813865902     0.0     0.0
   28   0.0000087360134  -0.2633824596764     0.0     0.0
   29   0.0000163018468  -0.2633804375739     0.0     0.0
   30   0.0000315769931  -0.2633842893114     0.0     0.0
 MICROCYCLE DIIS UPDATE:                   30                    5
   31   0.0000009826614  -0.2633817409611     0.0     0.0
   32   0.0000007156318  -0.2633817642774     0.0     0.0
   33   0.0000009895787  -0.2633817318954     0.0     0.0
   34   0.0000016338419  -0.2633817920239     0.0     0.0
   35   0.0000030031367  -0.2633817290580     0.0     0.0
 MICROCYCLE DIIS UPDATE:                   35                    5
   36   0.0000001585212  -0.2633817732104     0.0     0.0
   37   0.0000001217204  -0.2633817523839     0.0     0.0
   38   0.0000001747385  -0.2633817847007     0.0     0.0
   39   0.0000003061068  -0.2633817262077     0.0     0.0
   40   0.0000005726615  -0.2633818325037     0.0     0.0
 MICROCYCLE DIIS UPDATE:                   40                    5
   41   0.0000000263698  -0.2633817628546     0.0     0.0
 -----------------------------------------------------------------
 Iterations converged
 CCSD correlation energy / hartree =        -0.263381762854595
 CCSD total energy / hartree       =       -76.235318844624317

 Singles contributions

 Doubles contributions
     6a   (alpha)     7a   (alpha) ---     4a   (alpha)     5a   (alpha)       -0.0202654842
     6a   (alpha)     7a   (alpha) ---     5a   (alpha)     4a   (alpha)        0.0202654842
     6a   (alpha)     8a   (alpha) ---     3a   (alpha)     5a   (alpha)       -0.0287963350
     6a   (alpha)     8a   (alpha) ---     5a   (alpha)     3a   (alpha)        0.0287963350
     7a   (alpha)     6a   (alpha) ---     4a   (alpha)     5a   (alpha)        0.0202654842
     7a   (alpha)     6a   (alpha) ---     5a   (alpha)     4a   (alpha)       -0.0202654842
     7a   (alpha)     8a   (alpha) ---     3a   (alpha)     4a   (alpha)        0.0268180816
     7a   (alpha)     8a   (alpha) ---     4a   (alpha)     3a   (alpha)       -0.0268180816
     8a   (alpha)     6a   (alpha) ---     3a   (alpha)     5a   (alpha)        0.0287963350
     8a   (alpha)     6a   (alpha) ---     5a   (alpha)     3a   (alpha)       -0.0287963350
     8a   (alpha)     7a   (alpha) ---     3a   (alpha)     4a   (alpha)       -0.0268180816
     8a   (alpha)     7a   (alpha) ---     4a   (alpha)     3a   (alpha)        0.0268180816
     6a   (alpha)     6a   (beta ) ---     5a   (alpha)     5a   (beta )       -0.1526424570
     6a   (alpha)     7a   (beta ) ---     5a   (alpha)     4a   (beta )        0.0336349935
     6a   (alpha)     8a   (beta ) ---     5a   (alpha)     3a   (beta )        0.0419836501
     7a   (alpha)     6a   (beta ) ---     4a   (alpha)     5a   (beta )        0.0336349935
     7a   (alpha)     7a   (beta ) ---     4a   (alpha)     4a   (beta )       -0.0822583082
     7a   (alpha)     8a   (beta ) ---     4a   (alpha)     3a   (beta )       -0.0378506704
     8a   (alpha)     6a   (beta ) ---     3a   (alpha)     5a   (beta )        0.0419836501
     8a   (alpha)     7a   (beta ) ---     3a   (alpha)     4a   (beta )       -0.0378506704
     8a   (alpha)     8a   (beta ) ---     3a   (alpha)     3a   (beta )       -0.0572827012
 Ground state specification:
 exp(T)|Ref>~(1+T)|Ref>
 ------- a(p)+/a(q) strings ----------

 singles norm

 doubles norm

 Reference string
  0.98854984516754174      :(1a)+ (2a)+ (3a)+ (4a)+ (5a)+ (1b)+ (2b)+ (3b)+ (4b)+ (5b)+ |0>

 Singles strings

 Doubles strings
 -0.15089467723955444      :(6a)+ (6b)+ (5b)  (5a)  (1a)+ (2a)+ (3a)+ (4a)+ (5a)+ (1b)+ (2b)+ (3b)+ (4b)+ (5b)+ |0>
 -------------------------------------
 enrep_tce =    7.8335637558295357     
  EHF(total)         =       -75.97193708
  Shift (HFtot-HFA)  =         0.00000000
 ALL OCCUPIED ORBITALS ARE ACTIVE IN DUCC --> NO SHIFT
 Number of active orbitals                    8
 Number of active alpha electrons                    5
 Number of active beta electrons                    5
  nos                    10
  nvs                    62
 noas                     5
 nobs                     5
 nvas                    31
 nvbs                    31
 nactv                     3
 DUCC MODEL =                     6
 NONHF =  T
 F-T1 correlation    =    1.7548713358567935E-004
 V-T1-T1 correlation =    3.1987741983568194E-006
 V-T2 correlation    =  -0.26356044876268769     
 Total correlation   =  -0.26338176285490367     
 F-T1(Ext) correlation         =    2.2536958479767483E-004
 V-T1(Ext)-T1(Ext) correlation =    7.1345721846976250E-006
 V-T2(Ext) correlation         =  -0.15719694091335773     
 Total Ext correlation         =  -0.15696443675637536     
1-BODY TIME =   17.805 SECONDS.
  HHHH TIME =   18.185 SECONDS.
  PPPP TIME =    0.106 SECONDS.
  HHHP TIME =    3.411 SECONDS.
  PPPH TIME =    0.300 SECONDS.
  HPHP TIME =    2.027 SECONDS.
  HHPP TIME =    1.852 SECONDS.
 ONE-BODY UNITARY CHECK
 TWO-BODY UNITARY CHECK
                    1                    1                    1                    2   5.5444263719500263E-012
                    1                    1                    1                    4   3.7614004981137002E-012
                    1                    1                    1                    5  -9.8081335527166984E-012
                    1                    1                    2                    1  -5.5444332469891024E-012
                    1                    1                    2                    4  -1.2355995275859784E-010
                    1                    1                    2                    5  -6.5268648520651368E-011
                    1                    1                    4                    1  -3.7614000166176042E-012
                    1                    1                    4                    2   1.2355995278219358E-010
                    1                    1                    4                    5  -1.6470109004960522E-011
                    1                    1                    5                    1   9.8081327563625223E-012
                    1                    1                    5                    2   6.5268648524889842E-011
                    1                    1                    5                    4   1.6470109004593125E-011
                    1                    2                    1                    1  -5.5444263719500263E-012
                    1                    2                    1                    4  -4.9268685485548414E-011
                    1                    2                    1                    5   1.1539836794471903E-011
                    1                    2                    2                    1   9.3388186073184443E-011
                    1                    2                    2                    2  -3.8566888988463471E-010
                    1                    2                    2                    4   7.9239521021123860E-010
                    1                    2                    2                    5   8.9494120447675130E-011
                    1                    2                    3                    3  -9.5446622721108599E-011
                    1                    2                    4                    1  -7.8566248125355731E-011
                    1                    2                    4                    2   2.0138652030710080E-010
                    1                    2                    4                    4  -3.1526625568566268E-010
                    1                    2                    4                    5  -9.8440382439253429E-011
                    1                    2                    5                    1  -8.3498225694755845E-011
                    1                    2                    5                    2   4.0549120831900876E-010
                    1                    2                    5                    4  -3.6077977228838242E-010
                    1                    2                    5                    5  -2.3005490270028685E-011
                    1                    3                    2                    3  -1.5559936603071201E-009
                    1                    3                    3                    1   8.2785867050461093E-010
                    1                    3                    3                    2  -3.2539311869972387E-009
                    1                    3                    3                    4   6.6087522086755168E-010
                    1                    3                    3                    5   5.1787421660037802E-010
                    1                    3                    4                    3   1.0548606892493706E-009
                    1                    3                    5                    3   9.7439761120865498E-010
                    1                    4                    1                    1  -3.7614004981137002E-012
                    1                    4                    1                    2   4.9268685485548414E-011
                    1                    4                    1                    5  -2.2475354910511669E-012
                    1                    4                    2                    1  -7.5363558275920450E-011
                    1                    4                    2                    2   3.5431482294888178E-010
                    1                    4                    2                    4  -6.7805012993193969E-010
                    1                    4                    2                    5  -8.6113684650938882E-011
                    1                    4                    3                    3   3.8032572420080193E-011
                    1                    4                    4                    1   4.0129921607956476E-010
                    1                    4                    4                    2  -1.8345709344030903E-009
                    1                    4                    4                    4   5.5037250566247792E-010
                    1                    4                    4                    5  -1.6499833183775126E-011
                    1                    4                    5                    1  -2.8581963185114745E-011
                    1                    4                    5                    2  -1.6398422626306280E-010
                    1                    4                    5                    4   1.0109647043121672E-009
                    1                    4                    5                    5   1.5886758689648638E-010
                    1                    5                    1                    1   9.8081335527166984E-012
                    1                    5                    1                    2  -1.1539836794471903E-011
                    1                    5                    1                    4   2.2475354910511669E-012
                    1                    5                    2                    1  -4.7611879716580319E-011
                    1                    5                    2                    2   1.2520589247604294E-010
                    1                    5                    2                    4   1.0938817516722987E-010
                    1                    5                    2                    5  -6.9842252641005853E-010
                    1                    5                    3                    3   4.9335425367243425E-011
                    1                    5                    4                    1  -6.1255448630115339E-011
                    1                    5                    4                    2   2.1706229370345442E-011
                    1                    5                    4                    4   3.1308047323244848E-011
                    1                    5                    4                    5   7.7286816356492150E-010
                    1                    5                    5                    1   2.5096658085033141E-010
                    1                    5                    5                    2   3.6343695414275956E-011
                    1                    5                    5                    4  -6.3287529730726710E-010
                    1                    5                    5                    5  -2.1166280786808531E-010
                    1                    6                    1                    7  -9.6762042822717831E-011
                    1                    6                    1                    9  -2.9681590518748635E-011
                    1                    6                    1                   10  -2.4685600785723238E-012
                    1                    6                    2                    6  -5.6313786966910584E-011
                    1                    6                    2                    7   5.4894053191922865E-010
                    1                    6                    2                    9   5.0829195583426690E-010
                    1                    6                    2                   10   1.1432517476109294E-011
                    1                    6                    3                    8  -2.1731620426790332E-009
                    1                    6                    4                    6   6.0224325526547773E-011
                    1                    6                    4                    7  -2.1082789420506787E-010
                    1                    6                    4                    9  -1.1021562482116387E-009
                    1                    6                    4                   10   1.7756382822420314E-010
                    1                    6                    5                    6   8.9219111265581574E-011
                    1                    6                    5                    7  -3.6640128626454216E-010
                    1                    6                    5                    9   1.4353907689182432E-010
                    1                    6                    5                   10  -6.5378926231152157E-010
                    1                    6                    6                    2   1.0230641334096902E-010
                    1                    6                    6                    4   3.3442984492815242E-011
                    1                    6                    6                    5  -7.3395942101761591E-012
                    1                    6                    7                    1   5.0769416448659399E-011
                    1                    6                    7                    2  -5.4894053191922865E-010
                    1                    6                    7                    4  -6.3185190196310415E-010
                    1                    6                    7                    5  -7.6701173299005554E-011
                    1                    6                    8                    3   2.1731620426790332E-009
                    1                    6                    9                    1  -6.3985719500614380E-011
                    1                    6                    9                    2   3.3438784033390512E-010
                    1                    6                    9                    4   1.1021562482116387E-009
                    1                    6                    9                    5  -1.9403394125802609E-010
                    1                    6                   10                    1  -7.9410956976833091E-011
                    1                    6                   10                    2   4.3166994230427885E-010
                    1                    6                   10                    4  -1.2706896385800137E-010
                    1                    6                   10                    5   6.5378926231152157E-010
                    1                    7                    1                    6   9.6762042822717831E-011
                    1                    7                    1                    9  -3.7506386885155507E-012
                    1                    7                    1                   10  -2.0093184061042990E-011
                    1                    7                    2                    6   3.9097391643649893E-010
                    1                    7                    2                    7   1.2610718025385381E-010
                    1                    7                    2                    9   6.6949449022829510E-011
                    1                    7                    2                   10   1.3003661875586603E-009
                    1                    7                    3                    8   2.4008420841659106E-009
                    1                    7                    4                    6  -2.2490917852072134E-010
                    1                    7                    4                    7   1.9049803574866520E-010
                    1                    7                    4                    9   1.1421841424053003E-009
                    1                    7                    4                   10  -7.0320930865451145E-010
                    1                    7                    5                    6  -2.6749603519640036E-010
                    1                    7                    5                    7   1.8664875721385865E-009
                    1                    7                    5                    9  -7.9031365523077324E-010
                    1                    7                    5                   10   1.2761932725868785E-009
                    1                    7                    6                    1  -1.0230638558539340E-010
                    1                    7                    6                    4  -4.5518073251565871E-011
                    1                    7                    6                    5   3.1632963284379534E-011
                    1                    7                    7                    1  -2.9758484565434173E-010
                    1                    7                    7                    2  -5.1177607637842293E-010
                    1                    7                    7                    4   7.2544579024502731E-010
                    1                    7                    7                    5  -1.2108720831571773E-009
                    1                    7                    8                    3  -2.4962887243407117E-009
                    1                    7                    9                    1   1.4634294210474907E-010
                    1                    7                    9                    2   1.0888436419859149E-011
                    1                    7                    9                    4  -1.4574503860720345E-009
                    1                    7                    9                    5   6.0476892872925181E-010
                    1                    7                   10                    1   1.8399788290213159E-010
                    1                    7                   10                    2  -1.4609963438702578E-009
                    1                    7                   10                    4   4.2953388049615966E-010
                    1                    7                   10                    5  -1.2991987607263722E-009
                    1                    8                    2                    8   1.4962157198969428E-009
                    1                    8                    3                    6   1.0171076134102286E-010
                    1                    8                    3                    7   3.3033382730585092E-009
                    1                    8                    3                    9  -4.8713522798893294E-011
                    1                    8                    3                   10   2.7859458446785612E-010
                    1                    8                    4                    8   8.6900999200431595E-010
                    1                    8                    5                    8   1.0762783472610671E-009
                    1                    8                    7                    3  -3.0522095094409618E-009
                    1                    8                    8                    1   7.2614714241581169E-010
                    1                    8                    8                    2  -6.5572694140855758E-009
                    1                    8                    8                    4   7.0958880698385185E-010
                    1                    8                    8                    5   2.3927963928825624E-010
                    1                    8                    9                    3   1.8585063349396691E-010
                    1                    8                   10                    3  -1.0188074169026340E-010
                    1                    9                    1                    6   2.9681590518748635E-011
                    1                    9                    1                    7   3.7506386885155507E-012
                    1                    9                    1                   10   1.9229000336462576E-011
                    1                    9                    2                    6  -4.0902232122108639E-011
                    1                    9                    2                    7  -3.1659476646198059E-010
                    1                    9                    2                    9   6.9482828431860488E-010
                    1                    9                    2                   10  -3.8879909502412963E-010
                    1                    9                    3                    8   5.3234716201194798E-010
                    1                    9                    4                    6   4.6061938985264561E-011
                    1                    9                    4                    7   1.5731680923225522E-009
                    1                    9                    4                    9   2.3836006380478780E-009
[...]
    7    7    4    1        0.0077610625
    7    7    4    2        0.0718987660
    7    7    4    4        0.7366630670
    7    7    4    5        0.0058126232
    7    7    4    6        0.0032034352
    7    7    4    7       -0.1149501329
    7    8    4    3        0.0270541944
    7    8    4    8       -0.0073558921
    7    1    5    1       -0.0014022303
    7    1    5    2        0.0026204681
    7    1    5    4       -0.0022042769
    7    1    5    5        0.0033201484
    7    1    5    6        0.0027058869
    7    1    5    7        0.0028700472
    7    2    5    1        0.0023080696
    7    2    5    2        0.0122347069
    7    2    5    4       -0.0029866402
    7    2    5    5       -0.0042146943
    7    2    5    6       -0.0077901921
    7    2    5    7        0.0009940239
    7    3    5    3       -0.0007018892
    7    3    5    8        0.0007124039
    7    4    5    1        0.0008096376
    7    4    5    2       -0.0025595741
    7    4    5    4       -0.0083831797
    7    4    5    5       -0.1313585394
    7    4    5    6       -0.0995950050
    7    4    5    7       -0.0056544460
    7    5    5    1       -0.0039654984
    7    5    5    2       -0.0092908135
    7    5    5    4       -0.0119824669
    7    5    5    5       -0.0003022263
    7    5    5    6        0.0029987003
    7    5    5    7        0.0164185597
    7    6    5    1       -0.0047377660
    7    6    5    2       -0.0113898616
    7    6    5    4       -0.0186679170
    7    6    5    5        0.0020331244
    7    6    5    6       -0.0027963660
    7    6    5    7        0.0172058378
    7    7    5    1       -0.0023979595
    7    7    5    2       -0.0120506304
    7    7    5    4        0.0058126232
    7    7    5    5        0.5184626876
    7    7    5    6        0.1880378677
    7    7    5    7       -0.0033134919
    7    8    5    3        0.0025895406
    7    8    5    8        0.0001123165
    7    1    6    1       -0.0038297596
    7    1    6    2        0.0051833031
    7    1    6    4       -0.0045021651
    7    1    6    5        0.0026027980
    7    1    6    6        0.0061388277
    7    1    6    7        0.0068527814
    7    2    6    1        0.0043783557
    7    2    6    2        0.0171137231
    7    2    6    4       -0.0076056238
    7    2    6    5       -0.0091352097
    7    2    6    6       -0.0050518531
    7    2    6    7        0.0081788153
    7    3    6    3       -0.0037469281
    7    3    6    8        0.0018044661
    7    4    6    1        0.0032434999
    7    4    6    2       -0.0145619436
    7    4    6    4       -0.0115025833
    7    4    6    5       -0.0953271483
    7    4    6    6       -0.1547589679
    7    4    6    7       -0.0065587258
    7    5    6    1       -0.0051226477
    7    5    6    2       -0.0082951759
    7    5    6    4       -0.0145887063
    7    5    6    5        0.0021700368
    7    5    6    6       -0.0022318665
    7    5    6    7        0.0172058378
    7    6    6    1       -0.0063727235
    7    6    6    2       -0.0097947744
    7    6    6    4       -0.0183552112
    7    6    6    5       -0.0027324166
    7    6    6    6        0.0041924416
    7    6    6    7        0.0247125500
    7    7    6    1       -0.0075323177
    7    7    6    2        0.0105445668
    7    7    6    4        0.0032034352
    7    7    6    5        0.1880378677
    7    7    6    6        0.5280654813
    7    7    6    7       -0.0105433584
    7    8    6    3        0.0020066099
    7    8    6    8       -0.0047119379
    7    1    7    1        0.0524977496
    7    1    7    2        0.0238396990
    7    1    7    4        0.0045976990
    7    1    7    5        0.0026680563
    7    1    7    6        0.0067918282
    7    1    7    7       -0.0143325547
    7    2    7    1        0.0238396990
    7    2    7    2        0.0566251166
    7    2    7    4        0.0170769472
    7    2    7    5        0.0010086610
    7    2    7    6        0.0081248699
    7    2    7    7       -0.0268802865
    7    3    7    3        0.0261792882
    7    3    7    8       -0.0170685404
    7    4    7    1        0.0045976990
    7    4    7    2        0.0170769472
    7    4    7    4        0.1967335943
    7    4    7    5       -0.0059733753
    7    4    7    6       -0.0066276412
    7    4    7    7       -0.1149501329
    7    5    7    1        0.0026680563
    7    5    7    2        0.0010086610
    7    5    7    4       -0.0059733753
    7    5    7    5        0.0183354777
    7    5    7    6        0.0179299190
    7    5    7    7       -0.0033134919
    7    6    7    1        0.0067918282
    7    6    7    2        0.0081248699
    7    6    7    4       -0.0066276412
    7    6    7    5        0.0179299190
    7    6    7    6        0.0247343260
    7    6    7    7       -0.0105433584
    7    7    7    1       -0.0143325547
    7    7    7    2       -0.0268802865
    7    7    7    4       -0.1149501329
    7    7    7    5       -0.0033134919
    7    7    7    6       -0.0105433584
    7    7    7    7        0.7734455586
    7    8    7    3       -0.0170685404
    7    8    7    8        0.0277996878
    7    1    8    3       -0.0040248486
    7    1    8    8        0.0062446840
    7    2    8    3        0.0102527695
    7    2    8    8       -0.0085088103
    7    3    8    1        0.0083349040
    7    3    8    2        0.0117185629
    7    3    8    4        0.0175641535
    7    3    8    5        0.0006745394
    7    3    8    6        0.0019037153
    7    3    8    7       -0.0173161865
    7    4    8    3        0.1131575952
    7    4    8    8       -0.1450397425
    7    5    8    3       -0.0032996578
    7    5    8    8        0.0041678412
    7    6    8    3       -0.0035085418
    7    6    8    8        0.0034395201
    7    7    8    3       -0.1744217567
    7    7    8    8        0.5548442236
    7    8    8    1       -0.0094469739
    7    8    8    2       -0.0076577663
    7    8    8    4       -0.0071799847
    7    8    8    5        0.0000364022
    7    8    8    6       -0.0047285997
    7    8    8    7        0.0277841724
    8    1    1    3       -0.0370976701
    8    1    1    8        0.0503052691
    8    2    1    3       -0.0178845359
    8    2    1    8        0.0247058429
    8    3    1    1       -0.5038365545
    8    3    1    2       -0.0040160745
    8    3    1    4        0.0025835854
    8    3    1    5        0.0010001162
    8    3    1    6        0.0040137688
    8    3    1    7       -0.0046071212
    8    4    1    3       -0.0029197872
    8    4    1    8        0.0036307087
    8    5    1    3       -0.0019273162
    8    5    1    8        0.0023151177
    8    6    1    3       -0.0057940124
    8    6    1    8        0.0081904431
    8    7    1    3        0.0068366243
    8    7    1    8       -0.0094469739
    8    8    1    1        0.9887499414
    8    8    1    2        0.0031980507
    8    8    1    4       -0.0041812432
    8    8    1    5       -0.0019692452
    8    8    1    6       -0.0056768451
    8    8    1    7        0.0062446840
    8    1    2    3       -0.0349769735
    8    1    2    8        0.0247058429
    8    2    2    3       -0.0507592668
    8    2    2    8        0.0446641336
    8    3    2    1       -0.0038369434
    8    3    2    2       -0.2135910131
    8    3    2    4        0.0019650495
    8    3    2    5        0.0021506024
    8    3    2    6       -0.0144785718
    8    3    2    7        0.0084945643
    8    4    2    3       -0.0022731817
    8    4    2    8        0.0033714142
    8    5    2    3       -0.0004549759
    8    5    2    8        0.0025548010
    8    6    2    3       -0.0219347873
    8    6    2    8        0.0075606656
    8    7    2    3        0.0233430075
    8    7    2    8       -0.0076577663
    8    8    2    1        0.0031980507
    8    8    2    2        0.6127323668
    8    8    2    4        0.0043716704
    8    8    2    5       -0.0002495167
    8    8    2    6        0.0161809138
    8    8    2    7       -0.0085088103
    8    1    3    1       -0.0366658621
    8    1    3    2       -0.0353415312
    8    1    3    4       -0.0067074556
    8    1    3    5       -0.0042732675
    8    1    3    6       -0.0073374713
    8    1    3    7        0.0084585635
    8    2    3    1       -0.0197552527
    8    2    3    2       -0.0518275258
    8    2    3    4       -0.0057675572
    8    2    3    5       -0.0035507526
    8    2    3    6       -0.0110463840
    8    2    3    7        0.0111142744
    8    3    3    3       -0.2057464863
    8    3    3    8        0.1560927696
    8    4    3    1       -0.0030068766
    8    4    3    2       -0.0025222104
    8    4    3    4       -0.0070632657
    8    4    3    5       -0.0009837621
    8    4    3    6       -0.0020061623
    8    4    3    7        0.0167665349
    8    5    3    1       -0.0019457184
    8    5    3    2       -0.0005289814
    8    5    3    4       -0.0008464727
    8    5    3    5       -0.0058002674
    8    5    3    6       -0.0133732498
    8    5    3    7        0.0007124039
    8    6    3    1       -0.0057198201
    8    6    3    2       -0.0221838049
    8    6    3    4       -0.0048794156
    8    6    3    5       -0.0202760743
    8    6    3    6       -0.0170336552
    8    6    3    7        0.0018044661
    8    7    3    1        0.0067524556
    8    7    3    2        0.0236832136
    8    7    3    4        0.0270541944
    8    7    3    5        0.0025895406
    8    7    3    6        0.0020066099
    8    7    3    7       -0.0170685404
    8    8    3    3        0.6198225523
    8    8    3    8       -0.1745034470
    8    1    4    3       -0.0066709188
    8    1    4    8        0.0036307087
    8    2    4    3       -0.0051027913
    8    2    4    8        0.0033714142
    8    3    4    1        0.0024905327
    8    3    4    2        0.0019683269
    8    3    4    4       -0.1499346183
    8    3    4    5       -0.0049267074
    8    3    4    6       -0.0048165720
    8    3    4    7        0.1172980000
    8    4    4    3       -0.0066365237
    8    4    4    8        0.0153128378
    8    5    4    3       -0.0007880975
    8    5    4    8        0.0010587935
    8    6    4    3       -0.0050396686
    8    6    4    8        0.0007303048
    8    7    4    3        0.0264454852
    8    7    4    8       -0.0071799847
    8    8    4    1       -0.0041812432
    8    8    4    2        0.0043716704
    8    8    4    4        0.5384260438
    8    8    4    5        0.0067215491
    8    8    4    6        0.0051864086
    8    8    4    7       -0.1450397425
    8    1    5    3       -0.0042655819
    8    1    5    8        0.0023151177
    8    2    5    3       -0.0030225723
    8    2    5    8        0.0025548010
    8    3    5    1        0.0009147647
    8    3    5    2        0.0023772023
    8    3    5    4       -0.0049883369
    8    3    5    5       -0.1288987057
    8    3    5    6       -0.1109645842
    8    3    5    7       -0.0029307400
    8    4    5    3       -0.0009259534
    8    4    5    8        0.0010587935
    8    5    5    3       -0.0054040494
    8    5    5    8        0.0141095425
    8    6    5    3       -0.0194309280
    8    6    5    8        0.0067105719
    8    7    5    3        0.0027981696
    8    7    5    8        0.0000364022
    8    8    5    1       -0.0019692452
    8    8    5    2       -0.0002495167
    8    8    5    4        0.0067215491
    8    8    5    5        0.4942205251
    8    8    5    6        0.1553754399
    8    8    5    7        0.0041678412
    8    1    6    3       -0.0072511473
    8    1    6    8        0.0081904431
    8    2    6    3       -0.0114755624
    8    2    6    8        0.0075606656
    8    3    6    1        0.0034778498
    8    3    6    2       -0.0154836199
    8    3    6    4       -0.0043128400
    8    3    6    5       -0.1097457556
    8    3    6    6       -0.1537481785
    8    3    6    7       -0.0033896817
    8    4    6    3       -0.0019317029
    8    4    6    8        0.0007303048
    8    5    6    3       -0.0145276417
    8    5    6    8        0.0067105719
    8    6    6    3       -0.0170522804
    8    6    6    8        0.0212353570
    8    7    6    3        0.0021573959
    8    7    6    8       -0.0047285997
    8    8    6    1       -0.0056768451
    8    8    6    2        0.0161809138
    8    8    6    4        0.0051864086
    8    8    6    5        0.1553754399
    8    8    6    6        0.5075244803
    8    8    6    7        0.0034395201
    8    1    7    3        0.0083349040
    8    1    7    8       -0.0094469739
    8    2    7    3        0.0117185629
    8    2    7    8       -0.0076577663
    8    3    7    1       -0.0040248486
    8    3    7    2        0.0102527695
    8    3    7    4        0.1131575952
    8    3    7    5       -0.0032996578
    8    3    7    6       -0.0035085418
    8    3    7    7       -0.1744217567
    8    4    7    3        0.0175641535
    8    4    7    8       -0.0071799847
    8    5    7    3        0.0006745394
    8    5    7    8        0.0000364022
    8    6    7    3        0.0019037153
    8    6    7    8       -0.0047285997
    8    7    7    3       -0.0173161865
    8    7    7    8        0.0277841724
    8    8    7    1        0.0062446840
    8    8    7    2       -0.0085088103
    8    8    7    4       -0.1450397425
    8    8    7    5        0.0041678412
    8    8    7    6        0.0034395201
    8    8    7    7        0.5548442236
    8    1    8    1        0.0496621378
    8    1    8    2        0.0250176258
    8    1    8    4        0.0033751981
    8    1    8    5        0.0021201226
    8    1    8    6        0.0080683368
    8    1    8    7       -0.0093013619
    8    2    8    1        0.0250176258
    8    2    8    2        0.0491693719
    8    2    8    4        0.0035800852
    8    2    8    5        0.0025293338
    8    2    8    6        0.0080149195
    8    2    8    7       -0.0081856302
    8    3    8    3        0.1517078442
    8    3    8    8       -0.1745034470
    8    4    8    1        0.0033751981
    8    4    8    2        0.0035800852
    8    4    8    4        0.0142826780
    8    4    8    5        0.0009783260
    8    4    8    6        0.0006654755
    8    4    8    7       -0.0073558921
    8    5    8    1        0.0021201226
    8    5    8    2        0.0025293338
    8    5    8    4        0.0009783260
    8    5    8    5        0.0146378757
    8    5    8    6        0.0070144341
    8    5    8    7        0.0001123165
    8    6    8    1        0.0080683368
    8    6    8    2        0.0080149195
    8    6    8    4        0.0006654755
    8    6    8    5        0.0070144341
    8    6    8    6        0.0212546417
    8    6    8    7       -0.0047119379
    8    7    8    1       -0.0093013619
    8    7    8    2       -0.0081856302
    8    7    8    4       -0.0073558921
    8    7    8    5        0.0001123165
    8    7    8    6       -0.0047119379
    8    7    8    7        0.0277996878
    8    8    8    3       -0.1745034470
    8    8    8    8        0.5639948994
 end_two_electron_integrals

 Parallel integral file used       3 records with       0 large values


 Task  times  cpu:       46.5s     wall:       46.9s


                                NWChem Input Module
                                -------------------


 Summary of allocated global arrays
-----------------------------------
  No active global arrays


MA_summarize_allocated_blocks: starting scan ...
MA_summarize_allocated_blocks: scan completed: 0 heap blocks, 0 stack blocks
MA usage statistics:

	allocation statistics:
					      heap	     stack
					      ----	     -----
	current number of blocks	         0	         0
	maximum number of blocks	        18	        42
	current total bytes		         0	         0
	maximum total bytes		   5323032	 716782712
	maximum total K-bytes		      5324	    716783
	maximum total M-bytes		         6	       717


                                     CITATION
                                     --------
                Please cite the following reference when publishing
                           results obtained with NWChem:

          E. Apra, E. J. Bylaska, W. A. de Jong, N. Govind, K. Kowalski,
       T. P. Straatsma, M. Valiev, H. J. J. van Dam, Y. Alexeev, J. Anchell,
       V. Anisimov, F. W. Aquino, R. Atta-Fynn, J. Autschbach, N. P. Bauman,
     J. C. Becca, D. E. Bernholdt, K. Bhaskaran-Nair, S. Bogatko, P. Borowski,
         J. Boschen, J. Brabec, A. Bruner, E. Cauet, Y. Chen, G. N. Chuev,
      C. J. Cramer, J. Daily, M. J. O. Deegan, T. H. Dunning Jr., M. Dupuis,
   K. G. Dyall, G. I. Fann, S. A. Fischer, A. Fonari, H. Fruchtl, L. Gagliardi,
      J. Garza, N. Gawande, S. Ghosh, K. Glaesemann, A. W. Gotz, J. Hammond,
       V. Helms, E. D. Hermes, K. Hirao, S. Hirata, M. Jacquelin, L. Jensen,
   B. G. Johnson, H. Jonsson, R. A. Kendall, M. Klemm, R. Kobayashi, V. Konkov,
      S. Krishnamoorthy, M. Krishnan, Z. Lin, R. D. Lins, R. J. Littlefield,
      A. J. Logsdail, K. Lopata, W. Ma, A. V. Marenich, J. Martin del Campo,
   D. Mejia-Rodriguez, J. E. Moore, J. M. Mullin, T. Nakajima, D. R. Nascimento,
    J. A. Nichols, P. J. Nichols, J. Nieplocha, A. Otero-de-la-Roza, B. Palmer,
    A. Panyala, T. Pirojsirikul, B. Peng, R. Peverati, J. Pittner, L. Pollack,
   R. M. Richard, P. Sadayappan, G. C. Schatz, W. A. Shelton, D. W. Silverstein,
   D. M. A. Smith, T. A. Soares, D. Song, M. Swart, H. L. Taylor, G. S. Thomas,
            V. Tipparaju, D. G. Truhlar, K. Tsemekhman, T. Van Voorhis,
      A. Vazquez-Mayagoitia, P. Verma, O. Villa, A. Vishnu, K. D. Vogiatzis,
        D. Wang, J. H. Weare, M. J. Williamson, T. L. Windus, K. Wolinski,
        A. T. Wong, Q. Wu, C. Yang, Q. Yu, M. Zacharias, Z. Zhang, Y. Zhao,
                                and R. J. Harrison
                        "NWChem: Past, present, and future
                         J. Chem. Phys. 152, 184102 (2020)
                               doi:10.1063/5.0004997

                                      AUTHORS
                                      -------
  E. Apra, E. J. Bylaska, N. Govind, K. Kowalski, M. Valiev, D. Mejia-Rodriguez,
       A. Kunitsa, N. P. Bauman, A. Panyala, W. A. de Jong, T. P. Straatsma,
        H. J. J. van Dam, D. Wang, T. L. Windus, J. Hammond, J. Autschbach,
    K. Bhaskaran-Nair, J. Brabec, K. Lopata, S. A. Fischer, S. Krishnamoorthy,
     M. Jacquelin, W. Ma, M. Klemm, O. Villa, Y. Chen, V. Anisimov, F. Aquino,
    S. Hirata, M. T. Hackler, Eric Hermes, L. Jensen, J. E. Moore, J. C. Becca,
      V. Konjkov, T. Risthaus, M. Malagoli, A. Marenich, A. Otero-de-la-Roza,
        J. Mullin, P. Nichols, R. Peverati, J. Pittner, Y. Zhao, P.-D. Fan,
        A. Fonari, M. J. Williamson, R. J. Harrison, J. R. Rehr, M. Dupuis,
     D. Silverstein, D. M. A. Smith, J. Nieplocha, V. Tipparaju, M. Krishnan,
     B. E. Van Kuiken, A. Vazquez-Mayagoitia, M. Swart, Q. Wu, T. Van Voorhis,
     A. A. Auer, M. Nooijen, L. D. Crosby, E. Brown, G. Cisneros, G. I. Fann,
   H. Fruchtl, J. Garza, K. Hirao, R. A. Kendall, J. A. Nichols, K. Tsemekhman,
    K. Wolinski, J. Anchell, D. E. Bernholdt, P. Borowski, T. Clark, D. Clerc,
   H. Dachsel, M. J. O. Deegan, K. Dyall, D. Elwood, E. Glendening, M. Gutowski,
   A. C. Hess, J. Jaffe, B. G. Johnson, J. Ju, R. Kobayashi, R. Kutteh, Z. Lin,
   R. Littlefield, X. Long, B. Meng, T. Nakajima, S. Niu, L. Pollack, M. Rosing,
   K. Glaesemann, G. Sandrone, M. Stave, H. Taylor, G. Thomas, J. H. van Lenthe,
                               A. T. Wong, Z. Zhang.

 Total times  cpu:       48.9s     wall:       51.2s
