 argument  1 = input.nw
  NWChem w/ OpenMP: maximum threads =    1



============================== echo of input deck ==============================
 echo
 start H2O
 title "H2O"

 memory total 24 gb

 geometry units bohr
 symmetry c1
        O  0.00000000  0.00000000  0.00000000
        H  0.00000000  3.871245  0.00000000
        H  1.72558000 -0.64860000  0.00000000
 end

 basis spherical
   * library 6-311++G**
 end

 mcscf
   active  8
   actelec 10
   multiplicity 1
   maxiter 40
   vectors input h2o.mos
   vectors output h2o.mos
 end

 task mcscf

 scf
   vectors input h2o.mos
   vectors output h2o-trash.mos
   noscf
 end

 tce
   2eorb
   2emet 13
   ccsd
   maxiter 300
 end

# set tce:print_integrals T
# set tce:qorb 8
# set tce:qela 5
# set tce:qelb 5

 set tce:qducc T
 set tce:nactv 3
 set tce:nonhf T
 set tce:ducc_model 6

 set tce:printtol 0.02

 task tce
================================================================================


                                         
                                         


             Northwest Computational Chemistry Package (NWChem) 7.0.1
             --------------------------------------------------------


                    Environmental Molecular Sciences Laboratory
                       Pacific Northwest National Laboratory
                                Richland, WA 99352

                              Copyright (c) 1994-2020
                       Pacific Northwest National Laboratory
                            Battelle Memorial Institute

             NWChem is an open-source computational chemistry package
                        distributed under the terms of the
                      Educational Community License (ECL) 2.0
             A copy of the license is included with this distribution
                              in the LICENSE.TXT file

                                  ACKNOWLEDGMENT
                                  --------------

            This software and its documentation were developed at the
            EMSL at Pacific Northwest National Laboratory, a multiprogram
            national laboratory, operated for the U.S. Department of Energy
            by Battelle under Contract Number DE-AC05-76RL01830. Support
            for this work was provided by the Department of Energy Office
            of Biological and Environmental Research, Office of Basic
            Energy Sciences, and the Office of Advanced Scientific Computing.


           Job information
           ---------------

    hostname        = WE46210
    program         = /home/baum612/code/nwchem/bin/LINUX64/nwchem
    date            = Thu Sep  5 12:53:39 2024

    compiled        = Wed_Sep_04_02:00:17_2024
    source          = /home/baum612/code/nwchem
    nwchem branch   = 7.0.0
    nwchem revision = nwchem_on_git-4191-g39d87d64de
    ga revision     = 5.8.1
    use scalapack   = F
    input           = input.nw
    prefix          = H2O.
    data base       = ./H2O.db
    status          = startup
    nproc           =        1
    time left       =     -1s



           Memory information
           ------------------

    heap     =  805306366 doubles =   6144.0 Mbytes
    stack    =  805306363 doubles =   6144.0 Mbytes
    global   = 1610612736 doubles =  12288.0 Mbytes (distinct from heap & stack)
    total    = 3221225465 doubles =  24576.0 Mbytes
    verify   = yes
    hardfail = no 


           Directory information
           ---------------------

  0 permanent = .
  0 scratch   = .




                                NWChem Input Module
                                -------------------


                                        H2O
                                        ---
 Turning off AUTOSYM since
 SYMMETRY directive was detected!


          ------
          auto-z
          ------
  autoz: The atoms group into disjoint clusters
 cluster   1:    1    3
 cluster   2:    2
 Connecting clusters   1   2 via atoms    1    2 r = 2.05
  autoz: regenerating connections with new bonds
  no constraints, skipping    0.0000000000000000     
  no constraints, skipping    0.0000000000000000     


                             Geometry "geometry" -> ""
                             -------------------------

 Output coordinates in a.u. (scale by  1.000000000 to convert to a.u.)

  No.       Tag          Charge          X              Y              Z
 ---- ---------------- ---------- -------------- -------------- --------------
    1 O                    8.0000    -0.17255800    -0.32226450     0.00000000
    2 H                    1.0000    -0.17255800     3.54898050     0.00000000
    3 H                    1.0000     1.55302200    -0.97086450     0.00000000

      Atomic Mass 
      ----------- 

      O                 15.994910
      H                  1.007825


 Effective nuclear repulsion energy (a.u.)       6.6129028698

            Nuclear Dipole moment (a.u.) 
            ----------------------------
        X                 Y               Z
 ---------------- ---------------- ----------------
    -0.0000000000     0.0000000000     0.0000000000



                                Z-matrix (autoz)
                                -------- 

 Units are Angstrom for bonds and degrees for angles

      Type          Name      I     J     K     L     M      Value
      ----------- --------  ----- ----- ----- ----- ----- ----------
    1 Stretch                  1     2                       2.04857
    2 Stretch                  1     3                       0.97551
    3 Bend                     2     1     3               110.59992


            XYZ format geometry
            -------------------
     3
 geometry
 O                    -0.09131377    -0.17053504     0.00000000
 H                    -0.09131377     1.87803974     0.00000000
 H                     0.82182391    -0.51375941     0.00000000

 ==============================================================================
                                internuclear distances
 ------------------------------------------------------------------------------
       center one      |      center two      | atomic units |       a.u.
 ------------------------------------------------------------------------------
    3 H                |   1 O                |     1.84345  |     1.84345
 ------------------------------------------------------------------------------
                         number of included internuclear distances:          1
 ==============================================================================





 Summary of "ao basis" -> "" (spherical)
 ------------------------------------------------------------------------------
       Tag                 Description            Shells   Functions and Types
 ---------------- ------------------------------  ------  ---------------------
 *                         6-311++G**                 on all atoms 


                      Basis "ao basis" -> "ao basis" (spherical)
                      -----
  O (Oxygen)
  ----------
            Exponent  Coefficients 
       -------------- ---------------------------------------------------------
  1 S  8.58850000E+03  0.001895
  1 S  1.29723000E+03  0.014386
  1 S  2.99296000E+02  0.070732
  1 S  8.73771000E+01  0.240001
  1 S  2.56789000E+01  0.594797
  1 S  3.74004000E+00  0.280802

  2 S  4.21175000E+01  0.113889
  2 S  9.62837000E+00  0.920811
  2 S  2.85332000E+00 -0.003274

  3 P  4.21175000E+01  0.036511
  3 P  9.62837000E+00  0.237153
  3 P  2.85332000E+00  0.819702

  4 S  9.05661000E-01  1.000000

  5 P  9.05661000E-01  1.000000

  6 S  2.55611000E-01  1.000000

  7 P  2.55611000E-01  1.000000

  8 S  8.45000000E-02  1.000000

  9 P  8.45000000E-02  1.000000

 10 D  1.29200000E+00  1.000000

  H (Hydrogen)
  ------------
            Exponent  Coefficients 
       -------------- ---------------------------------------------------------
  1 S  3.38650000E+01  0.025494
  1 S  5.09479000E+00  0.190373
  1 S  1.15879000E+00  0.852161

  2 S  3.25840000E-01  1.000000

  3 S  1.02741000E-01  1.000000

  4 S  3.60000000E-02  1.000000

  5 P  7.50000000E-01  1.000000



 Summary of "ao basis" -> "ao basis" (spherical)
 ------------------------------------------------------------------------------
       Tag                 Description            Shells   Functions and Types
 ---------------- ------------------------------  ------  ---------------------
 O                         6-311++G**               10       22   5s4p1d
 H                         6-311++G**                5        7   4s1p



                            NWChem Direct MCSCF Module
                            --------------------------


                                        H2O


     -----------------------------------
       Basis functions:             36
       Inactive shells:              0
       Active shells:                8
       Active electrons:            10
       Symmetry:                    a       
       Multiplicity:                 1
       Orbital rotations:          224
     -----------------------------------

     -----------------------------------
       E2 extrapolation:             F
       Conjugacy:                    T
       Micro CI relax:               T
       Canonical orbitals:           T
       Maximum iterations:          40
       Converge threshold:    1.00E-04
       Conjugacy resets:            20
       Initial levelshift:        0.10
     -----------------------------------

 Loading old vectors from job with title :

H2O


   input molecular orbitals = ./h2o.mos
  output molecular orbtials = ./h2o.mos

       No. of determinants:          3136


  Starting Orbital Energies
   -20.619138    -1.311656    -0.675544    -0.547936    -0.434826    -0.139878
    -0.026482    -0.014119     0.074970     0.092380     0.237472     0.281946
     0.319093     0.470751     0.536186     0.621456     1.076801     1.202085
     1.465423     1.533730     1.576349     1.590283     1.598480     1.904012
     2.231087     2.679180     2.803290     3.156337     3.192854     3.456592
     3.472236     4.154965     5.295513     5.494403     5.933378    51.459794

  Orbital Symmetry Irreps
a    a    a    a    a    a    a    a    a    a    a    a    a    a    a   
a    a    a    a    a    a    a    a    a    a    a    a    a    a    a   
a    a    a    a    a    a   

 Integral file          = ./H2O.aoints.0
 Record size in doubles =  65536        No. of integs per rec  =  43688
 Max. records in memory =     10        Max. records in file   = 232487
 No. of bits per label  =      8        No. of bits per value  =     64


 #quartets = 2.212D+04 #integrals = 9.993D+04 #direct =  0.0% #cached =100.0%




          %%%%% MacroIteration   1 %%%%%


          Number of sigma calls:       23
                       o<<<<< (aa):             0.00
                       o<<<<< (bb):             0.00
                       o<<<<< (ab):             0.06
                       o<<<<< (total)           0.07
                       o<<<<< (aa) ff           0.00
                       o<<<<< (aa) gop          0.00
                       o<<<<< (aa) dot          0.00
                       o<<<<< (ab) str          0.00
                       o<<<<< (ab) gath         0.00
                       o<<<<< (ab) dotab        0.00
                       o<<<<< (ab) scat         0.00
                       o<<<<< (ab) sync         0.00
                       o<<<<< Density           0.01
                       o<<<<< Density one       0.00
                       o<<<<< Density two       0.00
                       o<<<<< Density ab        0.01
                       o<<<<< Spin adapt        0.36
                       o<<<<< Symm adapt        0.00

                       o<<<<< (ab) max sync:      0.00

           >>>| Valence CI:            -82.595503378212
           >>>| MCSCF energy:          -75.982600508429
           >>>| Gradient norm:          0.153532104D-01

                              ----- Line search ------

        step       energy         lsg     num-lsg   num-lsh   lsrat    time
      ------- ---------------- --------- --------- --------- ------- --------
       0.0000     -75.98260051 -5.14D-05  0.00D+00  0.00D+00 0.0D+00      0.6

          Number of sigma calls:       23
                       o<<<<< (aa):             0.00
                       o<<<<< (bb):             0.00
                       o<<<<< (ab):             0.07
                       o<<<<< (total)           0.07
                       o<<<<< (aa) ff           0.00
                       o<<<<< (aa) gop          0.00
                       o<<<<< (aa) dot          0.00
                       o<<<<< (ab) str          0.00
                       o<<<<< (ab) gath         0.00
                       o<<<<< (ab) dotab        0.00
                       o<<<<< (ab) scat         0.00
                       o<<<<< (ab) sync         0.00
                       o<<<<< Density           0.00
                       o<<<<< Density one       0.00
                       o<<<<< Density two       0.00
                       o<<<<< Density ab        0.00
                       o<<<<< Spin adapt        0.35
                       o<<<<< Symm adapt        0.00

                       o<<<<< (ab) max sync:      0.00
       1.0000     -75.98263112 -9.72D-06 -9.76D-06  4.17D-05 1.9D-01      1.1

          Number of sigma calls:       21
                       o<<<<< (aa):             0.00
                       o<<<<< (bb):             0.00
                       o<<<<< (ab):             0.07
                       o<<<<< (total)           0.08
                       o<<<<< (aa) ff           0.00
                       o<<<<< (aa) gop          0.00
                       o<<<<< (aa) dot          0.00
                       o<<<<< (ab) str          0.00
                       o<<<<< (ab) gath         0.00
                       o<<<<< (ab) dotab        0.00
                       o<<<<< (ab) scat         0.00
                       o<<<<< (ab) sync         0.00
                       o<<<<< Density           0.01
                       o<<<<< Density one       0.00
                       o<<<<< Density two       0.00
                       o<<<<< Density ab        0.01
                       o<<<<< Spin adapt        0.48
                       o<<<<< Symm adapt        0.00

                       o<<<<< (ab) max sync:      0.00
       1.2330     -75.98263225  6.40D-08  6.20D-08  4.20D-05 1.2D-03      1.7
     --- Orbitals canonicalized ---



          %%%%% MacroIteration   2 %%%%%


          Number of sigma calls:       22
                       o<<<<< (aa):             0.00
                       o<<<<< (bb):             0.00
                       o<<<<< (ab):             0.07
                       o<<<<< (total)           0.07
                       o<<<<< (aa) ff           0.00
                       o<<<<< (aa) gop          0.00
                       o<<<<< (aa) dot          0.00
                       o<<<<< (ab) str          0.00
                       o<<<<< (ab) gath         0.00
                       o<<<<< (ab) dotab        0.00
                       o<<<<< (ab) scat         0.00
                       o<<<<< (ab) sync         0.00
                       o<<<<< Density           0.01
                       o<<<<< Density one       0.00
                       o<<<<< Density two       0.00
                       o<<<<< Density ab        0.01
                       o<<<<< Spin adapt        0.32
                       o<<<<< Symm adapt        0.00

                       o<<<<< (ab) max sync:      0.00

           >>>| Valence CI:            -82.595535115315
           >>>| MCSCF energy:          -75.982632245532
           >>>| Gradient norm:          0.273236776D-02
     --- Warning:    5 Hessian diagonals < 0.05 ---
     --- Conjugacy reset ---

                              ----- Line search ------

        step       energy         lsg     num-lsg   num-lsh   lsrat    time
      ------- ---------------- --------- --------- --------- ------- --------
       0.0000     -75.98263225 -2.00D-06  0.00D+00  0.00D+00 0.0D+00      2.2

          Number of sigma calls:       19
                       o<<<<< (aa):             0.00
                       o<<<<< (bb):             0.00
                       o<<<<< (ab):             0.05
                       o<<<<< (total)           0.06
                       o<<<<< (aa) ff           0.00
                       o<<<<< (aa) gop          0.00
                       o<<<<< (aa) dot          0.00
                       o<<<<< (ab) str          0.00
                       o<<<<< (ab) gath         0.00
                       o<<<<< (ab) dotab        0.00
                       o<<<<< (ab) scat         0.00
                       o<<<<< (ab) sync         0.00
                       o<<<<< Density           0.00
                       o<<<<< Density one       0.00
                       o<<<<< Density two       0.00
                       o<<<<< Density ab        0.00
                       o<<<<< Spin adapt        0.31
                       o<<<<< Symm adapt        0.00

                       o<<<<< (ab) max sync:      0.00
       1.0000     -75.98263345 -4.08D-07 -4.08D-07  1.59D-06 2.0D-01      2.6

          Number of sigma calls:       16
                       o<<<<< (aa):             0.00
                       o<<<<< (bb):             0.00
                       o<<<<< (ab):             0.05
                       o<<<<< (total)           0.05
                       o<<<<< (aa) ff           0.00
                       o<<<<< (aa) gop          0.00
                       o<<<<< (aa) dot          0.00
                       o<<<<< (ab) str          0.00
                       o<<<<< (ab) gath         0.00
                       o<<<<< (ab) dotab        0.00
                       o<<<<< (ab) scat         0.00
                       o<<<<< (ab) sync         0.00
                       o<<<<< Density           0.01
                       o<<<<< Density one       0.00
                       o<<<<< Density two       0.00
                       o<<<<< Density ab        0.01
                       o<<<<< Spin adapt        0.25
                       o<<<<< Symm adapt        0.00

                       o<<<<< (ab) max sync:      0.00
       1.2571     -75.98263350  1.80D-10  1.72D-10  1.59D-06 9.0D-05      2.9



          %%%%% MacroIteration   3 %%%%%


          Number of sigma calls:        1
                       o<<<<< (aa):             0.00
                       o<<<<< (bb):             0.00
                       o<<<<< (ab):             0.00
                       o<<<<< (total)           0.00
                       o<<<<< (aa) ff           0.00
                       o<<<<< (aa) gop          0.00
                       o<<<<< (aa) dot          0.00
                       o<<<<< (ab) str          0.00
                       o<<<<< (ab) gath         0.00
                       o<<<<< (ab) dotab        0.00
                       o<<<<< (ab) scat         0.00
                       o<<<<< (ab) sync         0.00
                       o<<<<< Density           0.01
                       o<<<<< Density one       0.00
                       o<<<<< Density two       0.00
                       o<<<<< Density ab        0.01
                       o<<<<< Spin adapt        0.00
                       o<<<<< Symm adapt        0.00

                       o<<<<< (ab) max sync:      0.00

           >>>| Valence CI:            -82.595536369718
           >>>| MCSCF energy:          -75.982633499935
           >>>| Gradient norm:          0.803793447D-03
     --- Warning:    5 Hessian diagonals < 0.05 ---

                              ----- Line search ------

        step       energy         lsg     num-lsg   num-lsh   lsrat    time
      ------- ---------------- --------- --------- --------- ------- --------
       0.0000     -75.98263350 -1.19D-07  0.00D+00  0.00D+00 0.0D+00      3.0

          Number of sigma calls:       16
                       o<<<<< (aa):             0.00
                       o<<<<< (bb):             0.00
                       o<<<<< (ab):             0.04
                       o<<<<< (total)           0.05
                       o<<<<< (aa) ff           0.00
                       o<<<<< (aa) gop          0.00
                       o<<<<< (aa) dot          0.00
                       o<<<<< (ab) str          0.00
                       o<<<<< (ab) gath         0.00
                       o<<<<< (ab) dotab        0.00
                       o<<<<< (ab) scat         0.00
                       o<<<<< (ab) sync         0.00
                       o<<<<< Density           0.01
                       o<<<<< Density one       0.00
                       o<<<<< Density two       0.00
                       o<<<<< Density ab        0.00
                       o<<<<< Spin adapt        0.37
                       o<<<<< Symm adapt        0.00

                       o<<<<< (ab) max sync:      0.00
       1.0000     -75.98263357 -2.57D-08 -2.57D-08  9.31D-08 2.2D-01      3.5

          Number of sigma calls:       13
                       o<<<<< (aa):             0.00
                       o<<<<< (bb):             0.00
                       o<<<<< (ab):             0.04
                       o<<<<< (total)           0.04
                       o<<<<< (aa) ff           0.00
                       o<<<<< (aa) gop          0.00
                       o<<<<< (aa) dot          0.00
                       o<<<<< (ab) str          0.00
                       o<<<<< (ab) gath         0.00
                       o<<<<< (ab) dotab        0.00
                       o<<<<< (ab) scat         0.00
                       o<<<<< (ab) sync         0.00
                       o<<<<< Density           0.01
                       o<<<<< Density one       0.00
                       o<<<<< Density two       0.00
                       o<<<<< Density ab        0.01
                       o<<<<< Spin adapt        0.37
                       o<<<<< Symm adapt        0.00

                       o<<<<< (ab) max sync:      0.00
       1.2762     -75.98263358 -2.37D-12 -3.00D-12  9.31D-08 2.0D-05      4.0



          %%%%% MacroIteration   4 %%%%%


          Number of sigma calls:        1
                       o<<<<< (aa):             0.00
                       o<<<<< (bb):             0.00
                       o<<<<< (ab):             0.00
                       o<<<<< (total)           0.00
                       o<<<<< (aa) ff           0.00
                       o<<<<< (aa) gop          0.00
                       o<<<<< (aa) dot          0.00
                       o<<<<< (ab) str          0.00
                       o<<<<< (ab) gath         0.00
                       o<<<<< (ab) dotab        0.00
                       o<<<<< (ab) scat         0.00
                       o<<<<< (ab) sync         0.00
                       o<<<<< Density           0.01
                       o<<<<< Density one       0.00
                       o<<<<< Density two       0.00
                       o<<<<< Density ab        0.01
                       o<<<<< Spin adapt        0.00
                       o<<<<< Symm adapt        0.00

                       o<<<<< (ab) max sync:      0.00

           >>>| Valence CI:            -82.595536445499
           >>>| MCSCF energy:          -75.982633575716
           >>>| Gradient norm:          0.208709560D-03
     --- Warning:    5 Hessian diagonals < 0.05 ---

                              ----- Line search ------

        step       energy         lsg     num-lsg   num-lsh   lsrat    time
      ------- ---------------- --------- --------- --------- ------- --------
       0.0000     -75.98263358 -8.33D-09  0.00D+00  0.00D+00 0.0D+00      4.0

          Number of sigma calls:       13
                       o<<<<< (aa):             0.00
                       o<<<<< (bb):             0.00
                       o<<<<< (ab):             0.03
                       o<<<<< (total)           0.04
                       o<<<<< (aa) ff           0.00
                       o<<<<< (aa) gop          0.00
                       o<<<<< (aa) dot          0.00
                       o<<<<< (ab) str          0.00
                       o<<<<< (ab) gath         0.00
                       o<<<<< (ab) dotab        0.00
                       o<<<<< (ab) scat         0.00
                       o<<<<< (ab) sync         0.00
                       o<<<<< Density           0.01
                       o<<<<< Density one       0.00
                       o<<<<< Density two       0.00
                       o<<<<< Density ab        0.01
                       o<<<<< Spin adapt        0.26
                       o<<<<< Symm adapt        0.00

                       o<<<<< (ab) max sync:      0.00
       1.0000     -75.98263358 -2.27D-09 -2.27D-09  6.06D-09 2.7D-01      4.4

          Number of sigma calls:       12
                       o<<<<< (aa):             0.00
                       o<<<<< (bb):             0.00
                       o<<<<< (ab):             0.04
                       o<<<<< (total)           0.04
                       o<<<<< (aa) ff           0.00
                       o<<<<< (aa) gop          0.00
                       o<<<<< (aa) dot          0.00
                       o<<<<< (ab) str          0.00
                       o<<<<< (ab) gath         0.00
                       o<<<<< (ab) dotab        0.00
                       o<<<<< (ab) scat         0.00
                       o<<<<< (ab) sync         0.00
                       o<<<<< Density           0.01
                       o<<<<< Density one       0.00
                       o<<<<< Density two       0.00
                       o<<<<< Density ab        0.01
                       o<<<<< Spin adapt        0.24
                       o<<<<< Symm adapt        0.00

                       o<<<<< (ab) max sync:      0.00
       1.3752     -75.98263358 -3.13D-13  3.14D-13  6.06D-09 3.8D-05      4.7



          %%%%% MacroIteration   5 %%%%%


          Number of sigma calls:        1
                       o<<<<< (aa):             0.00
                       o<<<<< (bb):             0.00
                       o<<<<< (ab):             0.00
                       o<<<<< (total)           0.00
                       o<<<<< (aa) ff           0.00
                       o<<<<< (aa) gop          0.00
                       o<<<<< (aa) dot          0.00
                       o<<<<< (ab) str          0.00
                       o<<<<< (ab) gath         0.00
                       o<<<<< (ab) dotab        0.00
                       o<<<<< (ab) scat         0.00
                       o<<<<< (ab) sync         0.00
                       o<<<<< Density           0.01
                       o<<<<< Density one       0.00
                       o<<<<< Density two       0.00
                       o<<<<< Density ab        0.01
                       o<<<<< Spin adapt        0.00
                       o<<<<< Symm adapt        0.00

                       o<<<<< (ab) max sync:      0.00

           >>>| Valence CI:            -82.595536451229
           >>>| MCSCF energy:          -75.982633581446
           >>>| Gradient norm:          0.141757781D-04




     ==============================
            MCSCF Converged
     ==============================



          Canonical Eigenvalues

              1      
    1  -20.6202
    2   -1.3125
    3   -0.6764
    4   -0.5492
    5   -0.4263
    6   -0.1481
    7   -0.0265
    8   -0.0140
    9    0.0746
   10    0.0929
   11    0.2374
   12    0.2816
   13    0.3185
   14    0.4688
   15    0.5402
   16    0.6168
   17    1.0781
   18    1.1990
   19    1.4718
   20    1.5379
   21    1.5746
   22    1.5888
   23    1.5939
   24    1.8759
   25    2.2289
   26    2.6806
   27    2.8009
   28    3.1549
   29    3.1810
   30    3.4553
   31    3.4710
   32    4.1534
   33    5.2912
   34    5.4896
   35    5.9299
   36   51.4581


          Converged CI vector

   Index           Coefficient          Config. Occupation
         1          0.84539310          1  2  3  4  5  1  2  3  4  5
         2          0.18825793          1  2  3  4  5  1  2  3  4  6
        23         -0.05658239          1  2  3  4  5  1  2  3  5  8
         9         -0.03554272          1  2  3  4  5  1  2  4  5  7
        41          0.02399528          1  2  3  4  5  1  2  5  7  8
        57          0.18825793          1  2  3  4  6  1  2  3  4  5
        58         -0.42341858          1  2  3  4  6  1  2  3  4  6
        83          0.03300978          1  2  3  4  6  1  2  3  6  8
        60         -0.02507542          1  2  3  4  6  1  2  4  5  6
        69          0.02218785          1  2  3  4  6  1  2  4  6  7
      1233         -0.05658239          1  2  3  5  8  1  2  3  4  5
      1255         -0.04978652          1  2  3  5  8  1  2  3  5  8
      1241         -0.02993527          1  2  3  5  8  1  2  4  5  7
      1458          0.03300978          1  2  3  6  8  1  2  3  4  6
      1483          0.02818510          1  2  3  6  8  1  2  3  6  8
       170         -0.02507542          1  2  4  5  6  1  2  3  4  6
       449         -0.03554272          1  2  4  5  7  1  2  3  4  5
       471         -0.02993527          1  2  4  5  7  1  2  3  5  8
       457         -0.06340795          1  2  4  5  7  1  2  4  5  7
       458         -0.02665527          1  2  4  5  7  1  3  4  5  7
       674          0.02218785          1  2  4  6  7  1  2  3  4  6
       685          0.03365842          1  2  4  6  7  1  2  4  6  7
      2241          0.02399528          1  2  5  7  8  1  2  3  4  5
       513         -0.02665527          1  3  4  5  7  1  2  4  5  7
       514         -0.02512606          1  3  4  5  7  1  3  4  5  7

          Number of sigma calls:        1
                       o<<<<< (aa):             0.00
                       o<<<<< (bb):             0.00
                       o<<<<< (ab):             0.00
                       o<<<<< (total)           0.00
                       o<<<<< (aa) ff           0.00
                       o<<<<< (aa) gop          0.00
                       o<<<<< (aa) dot          0.00
                       o<<<<< (ab) str          0.00
                       o<<<<< (ab) gath         0.00
                       o<<<<< (ab) dotab        0.00
                       o<<<<< (ab) scat         0.00
                       o<<<<< (ab) sync         0.00
                       o<<<<< Density           0.00
                       o<<<<< Density one       0.00
                       o<<<<< Density two       0.00
                       o<<<<< Density ab        0.00
                       o<<<<< Spin adapt        0.00
                       o<<<<< Symm adapt        0.00

                       o<<<<< (ab) max sync:      0.00



          Natural orbital occupation numbers

              1      
    1    2.0000
    2    1.9985
    3    1.9826
    4    1.9738
    5    1.5722
    6    0.4286
    7    0.0272
    8    0.0171


          Number of sigma calls:       21
                       o<<<<< (aa):             0.00
                       o<<<<< (bb):             0.00
                       o<<<<< (ab):             0.06
                       o<<<<< (total)           0.07
                       o<<<<< (aa) ff           0.00
                       o<<<<< (aa) gop          0.00
                       o<<<<< (aa) dot          0.00
                       o<<<<< (ab) str          0.00
                       o<<<<< (ab) gath         0.00
                       o<<<<< (ab) dotab        0.00
                       o<<<<< (ab) scat         0.00
                       o<<<<< (ab) sync         0.00
                       o<<<<< Density           0.01
                       o<<<<< Density one       0.00
                       o<<<<< Density two       0.00
                       o<<<<< Density ab        0.01
                       o<<<<< Spin adapt        0.33
                       o<<<<< Symm adapt        0.00

                       o<<<<< (ab) max sync:      0.00


       Final MCSCF results 
       ------------------- 

       Total MCSCF energy =    -75.982633581445
            Gradient norm =      1.4D-05

    CPU time for solution =      5.1s
   Wall time for solution =      9.1s



                        Analysis of MCSCF natural orbitals
                        ----------------------------------

 Vector    1  Occ=1.999992D+00  E=-2.062016D+01  Symmetry=a
              MO Center= -9.1D-02, -1.7D-01,  5.5D-14, r^2= 1.5D-02
   Bfn.  Coefficient  Atom+Function         Bfn.  Coefficient  Atom+Function  
  ----- ------------  ---------------      ----- ------------  ---------------
     1      0.557333  1 O  s                  2      0.482320  1 O  s          

 Vector    2  Occ=1.998503D+00  E=-1.312533D+00  Symmetry=a
              MO Center= -2.7D-01, -1.3D-01, -2.8D-11, r^2= 4.3D-01
   Bfn.  Coefficient  Atom+Function         Bfn.  Coefficient  Atom+Function  
  ----- ------------  ---------------      ----- ------------  ---------------
     6      0.600207  1 O  s                 10      0.508240  1 O  s          
     2     -0.177976  1 O  s          

 Vector    3  Occ=1.982593D+00  E=-6.764137D-01  Symmetry=a
              MO Center= -7.2D-02, -1.8D-01,  2.7D-11, r^2= 6.7D-01
   Bfn.  Coefficient  Atom+Function         Bfn.  Coefficient  Atom+Function  
  ----- ------------  ---------------      ----- ------------  ---------------
     9      0.449338  1 O  pz                13      0.406152  1 O  pz         
     5      0.297757  1 O  pz         

 Vector    4  Occ=1.973836D+00  E=-5.491698D-01  Symmetry=a
              MO Center=  3.3D-01, -3.2D-01,  1.7D-12, r^2= 5.9D-01
   Bfn.  Coefficient  Atom+Function         Bfn.  Coefficient  Atom+Function  
  ----- ------------  ---------------      ----- ------------  ---------------
     7      0.341489  1 O  px                31      0.295872  3 H  s          
     3      0.226868  1 O  px                11      0.210331  1 O  px         
    30      0.195596  3 H  s          

 Vector    5  Occ=1.572245D+00  E=-4.263091D-01  Symmetry=a
              MO Center= -6.7D-02,  7.6D-01, -1.3D-14, r^2= 1.7D+00
   Bfn.  Coefficient  Atom+Function         Bfn.  Coefficient  Atom+Function  
  ----- ------------  ---------------      ----- ------------  ---------------
    24      0.312455  2 H  s                  8      0.307755  1 O  py         
    12      0.264428  1 O  py                25      0.233369  2 H  s          
     4      0.197491  1 O  py         

 Vector    6  Occ=4.285997D-01  E=-1.481196D-01  Symmetry=a
              MO Center= -7.7D-02,  9.5D-01,  3.2D-13, r^2= 1.7D+00
   Bfn.  Coefficient  Atom+Function         Bfn.  Coefficient  Atom+Function  
  ----- ------------  ---------------      ----- ------------  ---------------
    24      0.419920  2 H  s                  8     -0.368495  1 O  py         
    25      0.268567  2 H  s                 12     -0.251375  1 O  py         
     4     -0.233651  1 O  py                23      0.189591  2 H  s          

 Vector    7  Occ=2.717422D-02  E=-2.647097D-02  Symmetry=a
              MO Center=  5.2D-01, -3.9D-01,  4.1D-12, r^2= 6.2D-01
   Bfn.  Coefficient  Atom+Function         Bfn.  Coefficient  Atom+Function  
  ----- ------------  ---------------      ----- ------------  ---------------
    31      0.659173  3 H  s                  7     -0.494287  1 O  px         
     3     -0.389647  1 O  px                 6     -0.380761  1 O  s          
    30      0.333407  3 H  s                 10     -0.184257  1 O  s          
     8      0.167768  1 O  py         

 Vector    8  Occ=1.705676D-02  E=-1.401246D-02  Symmetry=a
              MO Center= -3.1D-02, -1.9D-01,  3.4D-11, r^2= 1.4D+00
   Bfn.  Coefficient  Atom+Function         Bfn.  Coefficient  Atom+Function  
  ----- ------------  ---------------      ----- ------------  ---------------
    13      0.687844  1 O  pz                 5     -0.502740  1 O  pz         
     9     -0.450541  1 O  pz                17      0.266521  1 O  pz         

 Vector    9  Occ=0.000000D+00  E= 7.459411D-02  Symmetry=a
              MO Center=  1.3D+00, -9.6D-01, -1.9D-11, r^2= 9.3D+00
   Bfn.  Coefficient  Atom+Function         Bfn.  Coefficient  Atom+Function  
  ----- ------------  ---------------      ----- ------------  ---------------
    33      1.877995  3 H  s                 14     -0.658175  1 O  s          
    32     -0.589075  3 H  s                 25     -0.286339  2 H  s          
    10      0.230219  1 O  s          

 Vector   10  Occ=0.000000D+00  E= 9.293399D-02  Symmetry=a
              MO Center= -2.1D-01,  2.5D+00,  9.2D-12, r^2= 1.1D+01
   Bfn.  Coefficient  Atom+Function         Bfn.  Coefficient  Atom+Function  
  ----- ------------  ---------------      ----- ------------  ---------------
    26      2.172335  2 H  s                 33     -1.097873  3 H  s          
    25     -1.049332  2 H  s                 16     -0.179059  1 O  py         

 Vector   11  Occ=0.000000D+00  E= 2.374102D-01  Symmetry=a
              MO Center= -7.8D-01, -2.1D-01, -1.4D-11, r^2= 4.9D+00
   Bfn.  Coefficient  Atom+Function         Bfn.  Coefficient  Atom+Function  
  ----- ------------  ---------------      ----- ------------  ---------------
    32      1.930987  3 H  s                 15     -1.738622  1 O  px         
    14     -0.737151  1 O  s                 10     -0.407855  1 O  s          
    11      0.398550  1 O  px                33     -0.376552  3 H  s          
    16     -0.326966  1 O  py                25      0.312746  2 H  s          
    12      0.228081  1 O  py         

 Vector   12  Occ=0.000000D+00  E= 2.816179D-01  Symmetry=a
              MO Center= -3.3D-01, -4.9D-01,  9.9D-13, r^2= 6.0D+00
   Bfn.  Coefficient  Atom+Function         Bfn.  Coefficient  Atom+Function  
  ----- ------------  ---------------      ----- ------------  ---------------
    32      3.711793  3 H  s                 14     -3.222562  1 O  s          
    16      1.990983  1 O  py                15     -1.970382  1 O  px         
    25     -0.709543  2 H  s                 33      0.605653  3 H  s          
    12     -0.449773  1 O  py                31     -0.286890  3 H  s          
    26     -0.275964  2 H  s                 10      0.255697  1 O  s          

 Vector   13  Occ=0.000000D+00  E= 3.184885D-01  Symmetry=a
              MO Center=  3.9D-01,  3.9D-01, -4.6D-11, r^2= 5.3D+00
   Bfn.  Coefficient  Atom+Function         Bfn.  Coefficient  Atom+Function  
  ----- ------------  ---------------      ----- ------------  ---------------
    14      5.106604  1 O  s                 32     -3.565373  3 H  s          
    15      1.608756  1 O  px                25     -1.267094  2 H  s          
    10     -1.144466  1 O  s                 33     -0.455370  3 H  s          
    16      0.447364  1 O  py                12     -0.250633  1 O  py         
    31      0.223392  3 H  s          

 Vector   14  Occ=0.000000D+00  E= 4.687681D-01  Symmetry=a
              MO Center=  1.3D+00, -8.1D-01,  2.5D-12, r^2= 4.3D+00
   Bfn.  Coefficient  Atom+Function         Bfn.  Coefficient  Atom+Function  
  ----- ------------  ---------------      ----- ------------  ---------------
    32      4.534982  3 H  s                 14     -1.571483  1 O  s          
    31     -1.502521  3 H  s                 33     -1.401973  3 H  s          
    15     -0.728808  1 O  px                26      0.259054  2 H  s          
    10     -0.251476  1 O  s                 25      0.173603  2 H  s          

 Vector   15  Occ=0.000000D+00  E= 5.402473D-01  Symmetry=a
              MO Center= -1.3D-01,  2.1D+00,  2.5D-12, r^2= 4.3D+00
   Bfn.  Coefficient  Atom+Function         Bfn.  Coefficient  Atom+Function  
  ----- ------------  ---------------      ----- ------------  ---------------
    25      2.917410  2 H  s                 24     -1.658737  2 H  s          
    26     -1.463218  2 H  s                 32     -0.508132  3 H  s          
    33      0.447527  3 H  s                 12     -0.305240  1 O  py         
    10     -0.266722  1 O  s                 31      0.205290  3 H  s          
    14      0.159405  1 O  s          

 Vector   16  Occ=0.000000D+00  E= 6.168407D-01  Symmetry=a
              MO Center= -8.0D-02, -1.8D-01,  4.8D-11, r^2= 5.4D+00
   Bfn.  Coefficient  Atom+Function         Bfn.  Coefficient  Atom+Function  
  ----- ------------  ---------------      ----- ------------  ---------------
    17     -1.448610  1 O  pz                13      1.398146  1 O  pz         
     9     -0.426756  1 O  pz         

 Vector   17  Occ=0.000000D+00  E= 1.078105D+00  Symmetry=a
              MO Center= -4.3D-01, -1.4D-02,  3.8D-12, r^2= 2.4D+00
   Bfn.  Coefficient  Atom+Function         Bfn.  Coefficient  Atom+Function  
  ----- ------------  ---------------      ----- ------------  ---------------
    11      2.430573  1 O  px                32      2.321332  3 H  s          
    31     -2.178185  3 H  s                 14     -1.983639  1 O  s          
    15     -1.672387  1 O  px                10      1.451858  1 O  s          
    12     -0.728706  1 O  py                16      0.590871  1 O  py         
     7     -0.496689  1 O  px                33      0.275573  3 H  s          

 Vector   18  Occ=0.000000D+00  E= 1.198985D+00  Symmetry=a
              MO Center= -9.6D-02,  2.7D-01,  8.9D-13, r^2= 2.5D+00
   Bfn.  Coefficient  Atom+Function         Bfn.  Coefficient  Atom+Function  
  ----- ------------  ---------------      ----- ------------  ---------------
    12      1.527100  1 O  py                16     -0.942077  1 O  py         
     8     -0.755102  1 O  py                14     -0.456782  1 O  s          
    25      0.424207  2 H  s                 28     -0.334363  2 H  py         
    11      0.294950  1 O  px                10      0.218504  1 O  s          
     4     -0.196924  1 O  py                 7     -0.182824  1 O  px         


 Wrote Lagrangian and 1- and 2-particle density matrices to ./H2O.mcpdm


     Multipole analysis of the density
     ---------------------------------

     L   x y z        total        nuclear
     -   - - -        -----        -------
     0   0 0 0     -0.000000     10.000000

     1   1 0 0      0.626012     -0.000000
     1   0 1 0     -0.012970      0.000000
     1   0 0 1     -0.000000      0.000000

     2   2 0 0     -4.620171      2.679864
     2   1 1 0     -0.680794     -1.675304
     2   1 0 1      0.000000      0.000000
     2   0 2 0     -3.825613     14.368676
     2   0 1 1      0.000000      0.000000
     2   0 0 2     -6.182365      0.000000


  Mulliken analysis of the total density
  --------------------------------------

    Atom       Charge   Shell Charges
 -----------   ------   -------------------------------------------------------
    1 O    8     8.29   1.08  0.91  0.90  1.06  1.92  0.86  1.42 -0.02  0.15  0.01
    2 H    1     0.94   0.16  0.47  0.30  0.01  0.00
    3 H    1     0.77   0.26  0.42  0.02  0.01  0.06

    Mulliken analysis of the active space density
    ---------------------------------------------

    Atom       Charge   Shell Charges
 -----------   ------   -------------------------------------------------------
    1 O    8     8.29   1.08  0.91  0.90  1.06  1.92  0.86  1.42 -0.02  0.15  0.01
    2 H    1     0.94   0.16  0.47  0.30  0.01  0.00
    3 H    1     0.77   0.26  0.42  0.02  0.01  0.06

 Parallel integral file used       3 records with       0 large values


 Task  times  cpu:        5.1s     wall:        9.2s


                                NWChem Input Module
                                -------------------


                                 NWChem SCF Module
                                 -----------------


                                        H2O



  ao basis        = "ao basis"
  functions       =    36
  atoms           =     3
  closed shells   =     5
  open shells     =     0
  charge          =   0.00
  wavefunction    = RHF 
  input vectors   = ./h2o.mos
  output vectors  = ./h2o-trash.mos
  use symmetry    = F
  symmetry adapt  = F


 Summary of "ao basis" -> "ao basis" (spherical)
 ------------------------------------------------------------------------------
       Tag                 Description            Shells   Functions and Types
 ---------------- ------------------------------  ------  ---------------------
 O                         6-311++G**               10       22   5s4p1d
 H                         6-311++G**                5        7   4s1p



 Forming initial guess at       9.2s


 Loading old vectors from job with title :

H2O


 Starting SCF solution at       9.2s



 ----------------------------------------------
         Quadratically convergent ROHF

 Convergence threshold     :          1.000E-04
 Maximum no. of iterations :           30
 Final Fock-matrix accuracy:          1.000E-07
 ----------------------------------------------


 Integral file          = ./H2O.aoints.0
 Record size in doubles =  65536        No. of integs per rec  =  43688
 Max. records in memory =     10        Max. records in file   = 232494
 No. of bits per label  =      8        No. of bits per value  =     64


 #quartets = 2.194D+04 #integrals = 9.896D+04 #direct =  0.0% #cached =100.0%



       Final RHF  results 
       ------------------ 

         Total SCF energy =    -75.794312391694
      One-electron energy =   -117.724405819025
      Two-electron energy =     35.317190557548
 Nuclear repulsion energy =      6.612902869783

        Time for solution =      0.0s


             Final eigenvalues
             -----------------

              1      
    1  -20.6202
    2   -1.3125
    3   -0.6764
    4   -0.5492
    5   -0.4263
    6   -0.1481
    7   -0.0265
    8   -0.0140
    9    0.0746
   10    0.0929
   11    0.2374
   12    0.2816
   13    0.3185
   14    0.4688
   15    0.5402

                       ROHF Final Molecular Orbital Analysis
                       -------------------------------------

 Vector    2  Occ=2.000000D+00  E=-1.312533D+00
              MO Center= -2.7D-01, -1.3D-01, -2.8D-11, r^2= 4.3D-01
   Bfn.  Coefficient  Atom+Function         Bfn.  Coefficient  Atom+Function  
  ----- ------------  ---------------      ----- ------------  ---------------
     6      0.600207  1 O  s                 10      0.508240  1 O  s          
     2     -0.177976  1 O  s          

 Vector    3  Occ=2.000000D+00  E=-6.764137D-01
              MO Center= -7.2D-02, -1.8D-01,  2.7D-11, r^2= 6.7D-01
   Bfn.  Coefficient  Atom+Function         Bfn.  Coefficient  Atom+Function  
  ----- ------------  ---------------      ----- ------------  ---------------
     9      0.449338  1 O  pz                13      0.406152  1 O  pz         
     5      0.297757  1 O  pz         

 Vector    4  Occ=2.000000D+00  E=-5.491698D-01
              MO Center=  3.3D-01, -3.2D-01,  1.7D-12, r^2= 5.9D-01
   Bfn.  Coefficient  Atom+Function         Bfn.  Coefficient  Atom+Function  
  ----- ------------  ---------------      ----- ------------  ---------------
     7      0.341489  1 O  px                31      0.295872  3 H  s          
     3      0.226868  1 O  px                11      0.210331  1 O  px         
    30      0.195596  3 H  s          

 Vector    5  Occ=2.000000D+00  E=-4.263091D-01
              MO Center= -6.7D-02,  7.6D-01, -1.3D-14, r^2= 1.7D+00
   Bfn.  Coefficient  Atom+Function         Bfn.  Coefficient  Atom+Function  
  ----- ------------  ---------------      ----- ------------  ---------------
    24      0.312455  2 H  s                  8      0.307755  1 O  py         
    12      0.264428  1 O  py                25      0.233369  2 H  s          
     4      0.197491  1 O  py         

 Vector    6  Occ=0.000000D+00  E=-1.481196D-01
              MO Center= -7.7D-02,  9.5D-01,  3.2D-13, r^2= 1.7D+00
   Bfn.  Coefficient  Atom+Function         Bfn.  Coefficient  Atom+Function  
  ----- ------------  ---------------      ----- ------------  ---------------
    24      0.419920  2 H  s                  8     -0.368495  1 O  py         
    25      0.268567  2 H  s                 12     -0.251375  1 O  py         
     4     -0.233651  1 O  py                23      0.189591  2 H  s          

 Vector    7  Occ=0.000000D+00  E=-2.647097D-02
              MO Center=  5.2D-01, -3.9D-01,  4.1D-12, r^2= 6.2D-01
   Bfn.  Coefficient  Atom+Function         Bfn.  Coefficient  Atom+Function  
  ----- ------------  ---------------      ----- ------------  ---------------
    31      0.659173  3 H  s                  7     -0.494287  1 O  px         
     3     -0.389647  1 O  px                 6     -0.380761  1 O  s          
    30      0.333407  3 H  s                 10     -0.184257  1 O  s          
     8      0.167768  1 O  py         

 Vector    8  Occ=0.000000D+00  E=-1.401246D-02
              MO Center= -3.1D-02, -1.9D-01,  3.4D-11, r^2= 1.4D+00
   Bfn.  Coefficient  Atom+Function         Bfn.  Coefficient  Atom+Function  
  ----- ------------  ---------------      ----- ------------  ---------------
    13      0.687844  1 O  pz                 5     -0.502740  1 O  pz         
     9     -0.450541  1 O  pz                17      0.266521  1 O  pz         

 Vector    9  Occ=0.000000D+00  E= 7.459411D-02
              MO Center=  1.3D+00, -9.6D-01, -1.9D-11, r^2= 9.3D+00
   Bfn.  Coefficient  Atom+Function         Bfn.  Coefficient  Atom+Function  
  ----- ------------  ---------------      ----- ------------  ---------------
    33      1.877995  3 H  s                 14     -0.658175  1 O  s          
    32     -0.589075  3 H  s                 25     -0.286339  2 H  s          
    10      0.230219  1 O  s          

 Vector   10  Occ=0.000000D+00  E= 9.293399D-02
              MO Center= -2.1D-01,  2.5D+00,  9.2D-12, r^2= 1.1D+01
   Bfn.  Coefficient  Atom+Function         Bfn.  Coefficient  Atom+Function  
  ----- ------------  ---------------      ----- ------------  ---------------
    26      2.172335  2 H  s                 33     -1.097873  3 H  s          
    25     -1.049332  2 H  s                 16     -0.179059  1 O  py         

 Vector   11  Occ=0.000000D+00  E= 2.374102D-01
              MO Center= -7.8D-01, -2.1D-01, -1.4D-11, r^2= 4.9D+00
   Bfn.  Coefficient  Atom+Function         Bfn.  Coefficient  Atom+Function  
  ----- ------------  ---------------      ----- ------------  ---------------
    32      1.930987  3 H  s                 15     -1.738622  1 O  px         
    14     -0.737151  1 O  s                 10     -0.407855  1 O  s          
    11      0.398550  1 O  px                33     -0.376552  3 H  s          
    16     -0.326966  1 O  py                25      0.312746  2 H  s          
    12      0.228081  1 O  py         

 Vector   12  Occ=0.000000D+00  E= 2.816179D-01
              MO Center= -3.3D-01, -4.9D-01,  9.9D-13, r^2= 6.0D+00
   Bfn.  Coefficient  Atom+Function         Bfn.  Coefficient  Atom+Function  
  ----- ------------  ---------------      ----- ------------  ---------------
    32      3.711793  3 H  s                 14     -3.222562  1 O  s          
    16      1.990983  1 O  py                15     -1.970382  1 O  px         
    25     -0.709543  2 H  s                 33      0.605653  3 H  s          
    12     -0.449773  1 O  py                31     -0.286890  3 H  s          
    26     -0.275964  2 H  s                 10      0.255697  1 O  s          

 Vector   13  Occ=0.000000D+00  E= 3.184885D-01
              MO Center=  3.9D-01,  3.9D-01, -4.6D-11, r^2= 5.3D+00
   Bfn.  Coefficient  Atom+Function         Bfn.  Coefficient  Atom+Function  
  ----- ------------  ---------------      ----- ------------  ---------------
    14      5.106604  1 O  s                 32     -3.565373  3 H  s          
    15      1.608756  1 O  px                25     -1.267094  2 H  s          
    10     -1.144466  1 O  s                 33     -0.455370  3 H  s          
    16      0.447364  1 O  py                12     -0.250633  1 O  py         
    31      0.223392  3 H  s          

 Vector   14  Occ=0.000000D+00  E= 4.687681D-01
              MO Center=  1.3D+00, -8.1D-01,  2.5D-12, r^2= 4.3D+00
   Bfn.  Coefficient  Atom+Function         Bfn.  Coefficient  Atom+Function  
  ----- ------------  ---------------      ----- ------------  ---------------
    32      4.534982  3 H  s                 14     -1.571483  1 O  s          
    31     -1.502521  3 H  s                 33     -1.401973  3 H  s          
    15     -0.728808  1 O  px                26      0.259054  2 H  s          
    10     -0.251476  1 O  s                 25      0.173603  2 H  s          

 Vector   15  Occ=0.000000D+00  E= 5.402473D-01
              MO Center= -1.3D-01,  2.1D+00,  2.5D-12, r^2= 4.3D+00
   Bfn.  Coefficient  Atom+Function         Bfn.  Coefficient  Atom+Function  
  ----- ------------  ---------------      ----- ------------  ---------------
    25      2.917410  2 H  s                 24     -1.658737  2 H  s          
    26     -1.463218  2 H  s                 32     -0.508132  3 H  s          
    33      0.447527  3 H  s                 12     -0.305240  1 O  py         
    10     -0.266722  1 O  s                 31      0.205290  3 H  s          
    14      0.159405  1 O  s          


 center of mass
 --------------
 x =  -0.07599894 y =  -0.14193351 z =   0.00000000

 moments of inertia (a.u.)
 ------------------
          14.942091084884           1.441579521852           0.000000000000
           1.441579521852           2.833002082974           0.000000000000
           0.000000000000           0.000000000000          17.775093167857

  Mulliken analysis of the total density
  --------------------------------------

    Atom       Charge   Shell Charges
 -----------   ------   -------------------------------------------------------
    1 O    8     8.33   1.08  0.91  0.88  1.06  1.92  0.86  1.47 -0.02  0.15  0.01
    2 H    1     0.90   0.15  0.44  0.31  0.01  0.00
    3 H    1     0.77   0.26  0.41  0.02  0.01  0.07

       Multipole analysis of the density wrt the origin
       ------------------------------------------------

     L   x y z        total         open         nuclear
     -   - - -        -----         ----         -------
     0   0 0 0     -0.000000      0.000000     10.000000

     1   1 0 0      0.630307      0.000000     -0.000000
     1   0 1 0      0.135163      0.000000      0.000000
     1   0 0 1     -0.000000      0.000000      0.000000

     2   2 0 0     -4.653088      0.000000      2.679864
     2   1 1 0     -0.774235      0.000000     -1.675304
     2   1 0 1      0.000000      0.000000      0.000000
     2   0 2 0     -3.146980      0.000000     14.368676
     2   0 1 1      0.000000      0.000000      0.000000
     2   0 0 2     -6.205505      0.000000      0.000000


 Parallel integral file used       3 records with       0 large values

                   NWChem Extensible Many-Electron Theory Module
                   ---------------------------------------------

              ======================================================
                   This portion of the program was automatically
                  generated by a Tensor Contraction Engine (TCE).
                  The development of this portion of the program
                 and TCE was supported by US Department of Energy,
                Office of Science, Office of Basic Energy Science.
                      TCE is a product of Battelle and PNNL.
              Please cite: S.Hirata, J.Phys.Chem.A 107, 9887 (2003).
              ======================================================

                                        H2O


            General Information
            -------------------
      Number of processors :     1
         Wavefunction type : Restricted Hartree-Fock
          No. of electrons :    10
           Alpha electrons :     5
            Beta electrons :     5
           No. of orbitals :    72
            Alpha orbitals :    36
             Beta orbitals :    36
        Alpha frozen cores :     0
         Beta frozen cores :     0
     Alpha frozen virtuals :     0
      Beta frozen virtuals :     0
         Spin multiplicity : singlet 
    Number of AO functions :    36
       Number of AO shells :    20
        Use of symmetry is : off
      Symmetry adaption is : off
         Schwarz screening : 0.10D-09

          Correlation Information
          -----------------------
          Calculation type : Coupled-cluster singles & doubles                           
   Perturbative correction : none                                                        
            Max iterations :      300
        Residual threshold : 0.10D-06
     T(0) DIIS level shift : 0.00D+00
     L(0) DIIS level shift : 0.00D+00
     T(1) DIIS level shift : 0.00D+00
     L(1) DIIS level shift : 0.00D+00
     T(R) DIIS level shift : 0.00D+00
     T(I) DIIS level shift : 0.00D+00
   CC-T/L Amplitude update :  5-th order DIIS
                I/O scheme : Global Array Library
        L-threshold :  0.10D-06
        EOM-threshold :  0.10D-06
 no EOMCCSD initial starts read in
 TCE RESTART OPTIONS
 READ_INT:   F
 WRITE_INT:  F
 READ_TA:    F
 WRITE_TA:   F
 READ_XA:    F
 WRITE_XA:   F
 READ_IN3:   F
 WRITE_IN3:  F
 SLICE:      F
 D4D5:       F
 quantumc:   F
 qrotation:  F
 pwtce:      F
 qducc:      T
 nacto:                         0
 nrotv:                         0
 nrot:                          0

            Memory Information
            ------------------
          Available GA space size is    1610611440 doubles
          Available MA space size is    1610610740 doubles

 Maximum block size        32 doubles

 tile_dim =     31

 Block   Spin    Irrep     Size     Offset   Alpha
 -------------------------------------------------
   1    alpha     a      5 doubles       0       1
   2    beta      a      5 doubles       5       1
   3    alpha     a     31 doubles      10       3
   4    beta      a     31 doubles      41       3

 Global array virtual files algorithm will be used

 Parallel file system coherency ......... OK

 Integral file          = ./H2O.aoints.0
 Record size in doubles =  65536        No. of integs per rec  =  43688
 Max. records in memory =     10        Max. records in file   = 232494
 No. of bits per label  =      8        No. of bits per value  =     64


 #quartets = 2.212D+04 #integrals = 1.001D+05 #direct =  0.0% #cached =100.0%


 Fock matrix recomputed
 1-e file size   =             1296
 1-e file name   = ./H2O.f1
 Cpu & wall time / sec            0.0            0.0
 4-electron integrals stored in orbital form

 v2    file size   =          1125026
 4-index algorithm nr.  13 is used
 imaxsize =       30
 imaxsize ichop =        0
 Cpu & wall time / sec            0.3            0.3
 T1-number-of-tasks                    1

 t1 file size   =              155
 t1 file name   = ./H2O.t1
 t1 file handle =       -998
 T2-number-of-boxes                    2

 t2 file size   =            48050
 t2 file name   = ./H2O.t2
 t2 file handle =       -996
CCSD iterations
 ---------------------------------------------------------
 Iter          Residuum       Correlation     Cpu    Wall 
 ---------------------------------------------------------
NEW TASK SCHEDULING
CCSD_T1_NTS --- OK
CCSD_T2_NTS --- OK
    1   0.9764030528665  -0.4775784184330     0.0     0.0
    2   1.6614136080695  -0.0032755386014     0.0     0.0
    3   2.9736432449916  -0.8640033094408     0.0     0.0
    4   5.4870030223699   0.6266408699439     0.0     0.0
    5   9.3896774987594  -2.1886697996852     0.0     0.0
 MICROCYCLE DIIS UPDATE:                    5                    5
    6   0.0658100052928  -0.3175689045120     0.0     0.0
    7   0.0766242033538  -0.3200213179268     0.0     0.0
    8   0.1431041001242  -0.3156176730184     0.0     0.0
    9   0.2861333639201  -0.2939707764676     0.0     0.0
   10   0.5906606725345  -0.1989976522938     0.0     0.0
 MICROCYCLE DIIS UPDATE:                   10                    5
   11   0.0094197666686  -0.3243837349146     0.0     0.0
   12   0.0092536579208  -0.3233274096223     0.0     0.0
   13   0.0179760962277  -0.3258525693295     0.0     0.0
   14   0.0398628958796  -0.3219910765895     0.0     0.0
   15   0.0901432145452  -0.3293788375755     0.0     0.0
 MICROCYCLE DIIS UPDATE:                   15                    5
   16   0.0007302655571  -0.3246970651642     0.0     0.0
   17   0.0005449059037  -0.3246963134613     0.0     0.0
   18   0.0007639541465  -0.3246661759374     0.0     0.0
   19   0.0015578673413  -0.3247674033739     0.0     0.0
   20   0.0034447537241  -0.3245634253385     0.0     0.0
 MICROCYCLE DIIS UPDATE:                   20                    5
   21   0.0001253949663  -0.3247120307578     0.0     0.0
   22   0.0001195972106  -0.3246953912230     0.0     0.0
   23   0.0001971607904  -0.3247213245567     0.0     0.0
   24   0.0004101664090  -0.3246760701523     0.0     0.0
   25   0.0009052699401  -0.3247612547498     0.0     0.0
 MICROCYCLE DIIS UPDATE:                   25                    5
   26   0.0000260012231  -0.3247057767124     0.0     0.0
   27   0.0000228141248  -0.3247070580272     0.0     0.0
   28   0.0000400967014  -0.3247034503271     0.0     0.0
   29   0.0000867553675  -0.3247111759312     0.0     0.0
   30   0.0001944742598  -0.3246962837239     0.0     0.0
 MICROCYCLE DIIS UPDATE:                   30                    5
   31   0.0000054179430  -0.3247064127660     0.0     0.0
   32   0.0000051047176  -0.3247057417472     0.0     0.0
   33   0.0000084349874  -0.3247069412793     0.0     0.0
   34   0.0000176320475  -0.3247048617810     0.0     0.0
   35   0.0000390412571  -0.3247087917188     0.0     0.0
 MICROCYCLE DIIS UPDATE:                   35                    5
   36   0.0000011945395  -0.3247062597523     0.0     0.0
   37   0.0000010578316  -0.3247063149492     0.0     0.0
   38   0.0000018491434  -0.3247061405485     0.0     0.0
   39   0.0000039987912  -0.3247064954855     0.0     0.0
   40   0.0000089717747  -0.3247058080049     0.0     0.0
 MICROCYCLE DIIS UPDATE:                   40                    5
   41   0.0000002512940  -0.3247062701983     0.0     0.0
   42   0.0000002363049  -0.3247062404807     0.0     0.0
   43   0.0000003836525  -0.3247062983331     0.0     0.0
   44   0.0000007927122  -0.3247061976516     0.0     0.0
   45   0.0000017419166  -0.3247063882590     0.0     0.0
 MICROCYCLE DIIS UPDATE:                   45                    5
   46   0.0000000552665  -0.3247062661246     0.0     0.0
 -----------------------------------------------------------------
 Iterations converged
 CCSD correlation energy / hartree =        -0.324706266124578
 CCSD total energy / hartree       =       -76.119018657818245

 Singles contributions
     6a   (alpha) ---     5a   (alpha)       -0.0386769182

 Doubles contributions
     7a   (alpha)     8a   (alpha) ---     3a   (alpha)     4a   (alpha)        0.0269140917
     7a   (alpha)     8a   (alpha) ---     4a   (alpha)     3a   (alpha)       -0.0269140917
     8a   (alpha)     7a   (alpha) ---     3a   (alpha)     4a   (alpha)       -0.0269140917
     8a   (alpha)     7a   (alpha) ---     4a   (alpha)     3a   (alpha)        0.0269140917
     6a   (alpha)     6a   (beta ) ---     5a   (alpha)     5a   (beta )       -0.4415087773
     6a   (alpha)     7a   (beta ) ---     5a   (alpha)     4a   (beta )       -0.0279744595
     6a   (alpha)     8a   (beta ) ---     5a   (alpha)     3a   (beta )       -0.0326497166
     7a   (alpha)     6a   (beta ) ---     4a   (alpha)     5a   (beta )       -0.0279744595
     7a   (alpha)     7a   (beta ) ---     4a   (alpha)     4a   (beta )       -0.0860871652
     7a   (alpha)     8a   (beta ) ---     4a   (alpha)     3a   (beta )       -0.0375064073
     8a   (alpha)     6a   (beta ) ---     3a   (alpha)     5a   (beta )       -0.0326497166
     8a   (alpha)     7a   (beta ) ---     3a   (alpha)     4a   (beta )       -0.0375064073
     8a   (alpha)     8a   (beta ) ---     3a   (alpha)     3a   (beta )       -0.0559065348
 Ground state specification:
 exp(T)|Ref>~(1+T)|Ref>
 ------- a(p)+/a(q) strings ----------

 singles norm

 doubles norm

 Reference string
  0.91480550120227921      :(1a)+ (2a)+ (3a)+ (4a)+ (5a)+ (1b)+ (2b)+ (3b)+ (4b)+ (5b)+ |0>

 Singles strings

 Doubles strings
 -0.40389465825886667      :(6a)+ (6b)+ (5b)  (5a)  (1a)+ (2a)+ (3a)+ (4a)+ (5a)+ (1b)+ (2b)+ (3b)+ (4b)+ (5b)+ |0>
 -------------------------------------
 enrep_tce =    6.6129028697831158     
  EHF(total)         =       -75.79431239
  Shift (HFtot-HFA)  =         0.00000000
 ALL OCCUPIED ORBITALS ARE ACTIVE IN DUCC --> NO SHIFT
 Number of active orbitals                    8
 Number of active alpha electrons                    5
 Number of active beta electrons                    5
  nos                    10
  nvs                    62
 noas                     5
 nobs                     5
 nvas                    31
 nvbs                    31
 nactv                     3
 DUCC MODEL =                     6
 NONHF =  T
 F-T1 correlation    =   -2.0829123150072418E-003
 V-T1-T1 correlation =    2.1111136528528164E-004
 V-T2 correlation    =  -0.32283446517377590     
 Total correlation   =  -0.32470626612349784     
 F-T1(Ext) correlation         =   -1.5842798024209316E-004
 V-T1(Ext)-T1(Ext) correlation =    1.4862024214629501E-005
 V-T2(Ext) correlation         =  -0.15596425937236633     
 Total Ext correlation         =  -0.15610782532839379     
1-BODY TIME =   17.574 SECONDS.
  HHHH TIME =   20.312 SECONDS.
  PPPP TIME =    0.115 SECONDS.
  HHHP TIME =    3.391 SECONDS.
  PPPH TIME =    0.304 SECONDS.
  HPHP TIME =    2.058 SECONDS.
  HHPP TIME =    1.887 SECONDS.
 ONE-BODY UNITARY CHECK
 TWO-BODY UNITARY CHECK
                    1                    1                    1                    2   5.5331582047717561E-012
                    1                    1                    1                    4   1.8125932680529650E-012
                    1                    1                    1                    5  -7.3596205492709185E-011
                    1                    1                    2                    1  -5.5331595018335564E-012
                    1                    1                    2                    4  -1.1904545436691402E-010
                    1                    1                    2                    5   2.1730513228166222E-010
                    1                    1                    4                    1  -1.8125929693068640E-012
                    1                    1                    4                    2   1.1904545433161326E-010
                    1                    1                    4                    5  -5.7250882651977918E-011
                    1                    1                    5                    1   7.3596205519570841E-011
                    1                    1                    5                    2  -2.1730513228111628E-010
                    1                    1                    5                    4   5.7250882652085245E-011
                    1                    2                    1                    1  -5.5331582047717561E-012
                    1                    2                    1                    4  -1.3246194245641885E-010
                    1                    2                    1                    5   2.4745373111700886E-010
                    1                    2                    2                    1   8.9509955003563846E-011
                    1                    2                    2                    2  -4.8147594813136635E-010
                    1                    2                    2                    4   2.0779334208159694E-009
                    1                    2                    2                    5  -2.5797013402393057E-009
                    1                    2                    3                    3  -1.1689306133341322E-009
                    1                    2                    4                    1  -8.0294270364544840E-011
                    1                    2                    4                    2   1.2275462590860542E-010
                    1                    2                    4                    4  -1.0831355763358875E-009
                    1                    2                    4                    5   8.6212006424838533E-010
                    1                    2                    5                    1  -2.4859432568025142E-010
                    1                    2                    5                    2   2.7472148602216209E-009
                    1                    2                    5                    4  -1.1958428393571766E-009
                    1                    2                    5                    5  -3.3283792329888745E-011
                    1                    3                    2                    3  -3.2839680107199509E-009
                    1                    3                    3                    1   1.6579282391404604E-009
                    1                    3                    3                    2  -8.2907356153960610E-009
                    1                    3                    3                    4   1.1483039493234704E-009
                    1                    3                    3                    5  -2.0529872656483567E-009
                    1                    3                    4                    3   2.2455340798616108E-009
                    1                    3                    5                    3   3.9970167644426402E-009
                    1                    4                    1                    1  -1.8125932680529650E-012
                    1                    4                    1                    2   1.3246194245641885E-010
                    1                    4                    1                    5   3.2968332924765420E-012
                    1                    4                    2                    1  -1.6050004467832446E-010
                    1                    4                    2                    2   4.3551324860305840E-010
                    1                    4                    2                    4  -1.1260250249583992E-009
                    1                    4                    2                    5   3.9530687875660372E-010
                    1                    4                    3                    3  -1.5042236060739330E-010
                    1                    4                    4                    1   7.7902606587798573E-010
                    1                    4                    4                    2  -5.0498641258195365E-009
                    1                    4                    4                    4   1.7508435853712538E-009
                    1                    4                    4                    5  -2.8665679829842361E-009
                    1                    4                    5                    1  -4.2018249990505296E-011
                    1                    4                    5                    2  -4.5935229914511461E-010
                    1                    4                    5                    4   3.9744493815843662E-009
                    1                    4                    5                    5   7.5297907854859085E-011
                    1                    5                    1                    1   7.3596205492709185E-011
                    1                    5                    1                    2  -2.4745373111700886E-010
                    1                    5                    1                    4  -3.2968332924765420E-012
                    1                    5                    2                    1  -3.5104554679810107E-010
                    1                    5                    2                    2   1.2140562061604004E-009
                    1                    5                    2                    4  -1.9161068857877911E-010
                    1                    5                    2                    5  -3.4328498030311572E-010
                    1                    5                    3                    3   4.0727462105140889E-010
                    1                    5                    4                    1  -1.6593008564380618E-010
                    1                    5                    4                    2   4.3882991186162956E-010
                    1                    5                    4                    4   1.4282768192610620E-010
                    1                    5                    4                    5   6.7879972302786751E-010
                    1                    5                    5                    1  -5.4798754423046603E-010
                    1                    5                    5                    2   1.8872660604435376E-009
                    1                    5                    5                    4  -1.1691508022132480E-009
                    1                    5                    5                    5  -8.9375716323804234E-011
                    1                    6                    1                    7  -1.4784179436233558E-010
                    1                    6                    1                    9  -1.0984163578697803E-010
                    1                    6                    1                   10  -1.3525945988246413E-010
                    1                    6                    2                    6   1.4919587787431965E-010
                    1                    6                    2                    7   1.2400382630450846E-009
                    1                    6                    2                    9   1.5171963334108252E-009
                    1                    6                    2                   10   4.1359910288307766E-010
                    1                    6                    3                    8  -6.2088228378054389E-009
                    1                    6                    4                    6  -2.3517854330634691E-011
                    1                    6                    4                    7  -4.8244356209634076E-010
                    1                    6                    4                    9  -2.3082642429395062E-009
                    1                    6                    4                   10   4.0473956206942691E-010
                    1                    6                    5                    6   1.9113892413269440E-010
                    1                    6                    5                    7  -5.3862809698546066E-010
                    1                    6                    5                    9   1.0393500410365089E-010
                    1                    6                    5                   10   9.2742272021772987E-010
                    1                    6                    6                    2   1.5337497938361366E-010
                    1                    6                    6                    4   1.1165422753034449E-010
                    1                    6                    6                    5   6.1663257833188823E-011
                    1                    6                    7                    1  -1.5472906289559774E-010
                    1                    6                    7                    2  -1.2400382491672968E-009
                    1                    6                    7                    4  -1.6362417900629700E-009
                    1                    6                    7                    5  -1.9629397803380688E-010
                    1                    6                    8                    3   6.2088228378054389E-009
                    1                    6                    9                    1   2.1705262587268237E-011
                    1                    6                    9                    2   6.0148901874848559E-010
                    1                    6                    9                    4   2.3082642429395062E-009
                    1                    6                    9                    5  -4.6199044535701755E-010
                    1                    6                   10                    1  -1.1754272208341909E-010
                    1                    6                   10                    2   3.2132297213618988E-010
                    1                    6                   10                    4  -4.6684120788955188E-011
                    1                    6                   10                    5  -9.2742272021772987E-010
                    1                    7                    1                    6   1.4784179436233558E-010
                    1                    7                    1                    9  -4.2496209242542937E-011
                    1                    7                    1                   10  -8.9533970515365269E-011
                    1                    7                    2                    6   2.7232863880621849E-010
                    1                    7                    2                    7   3.9768231589742964E-010
                    1                    7                    2                    9   1.0126600157381316E-009
                    1                    7                    2                   10   8.5004575721024309E-009
                    1                    7                    3                    8   1.3664472331420541E-009
                    1                    7                    4                    6  -2.2052373642444945E-010
                    1                    7                    4                    7   2.9418877056652804E-011
                    1                    7                    4                    9   1.6067471658720578E-010
                    1                    7                    4                   10  -6.7356603075056226E-010
                    1                    7                    5                    6  -5.2176021099123449E-010
                    1                    7                    5                    7   1.2118829876791616E-008
                    1                    7                    5                    9  -1.4992423739111638E-009
                    1                    7                    5                   10  -9.4007108868143785E-010
                    1                    7                    6                    1  -1.5337503489476489E-010
                    1                    7                    6                    4  -8.9965665559660346E-011
                    1                    7                    6                    5   3.3698743491863969E-010
                    1                    7                    7                    1  -1.8281642866213588E-010
                    1                    7                    7                    2  -8.7915827048923312E-010
                    1                    7                    7                    4   1.0652735169675021E-009
                    1                    7                    7                    5  -1.1080158903613909E-008
                    1                    7                    8                    3  -2.5353778451697728E-009
[...]
    7    7    4    1        0.0084912912
    7    7    4    2        0.0721236694
    7    7    4    4        0.7496808474
    7    7    4    5        0.0043845912
    7    7    4    6        0.0061876007
    7    7    4    7       -0.0890293799
    7    8    4    3        0.0268849864
    7    8    4    8       -0.0044630053
    7    1    5    1        0.0001463587
    7    1    5    2       -0.0010391428
    7    1    5    4        0.0006329436
    7    1    5    5        0.0024890378
    7    1    5    6       -0.0012670870
    7    1    5    7       -0.0004440180
    7    2    5    1       -0.0001994652
    7    2    5    2        0.0003893162
    7    2    5    4        0.0015939806
    7    2    5    5       -0.0073772926
    7    2    5    6        0.0110650691
    7    2    5    7       -0.0016985296
    7    3    5    3        0.0006162350
    7    3    5    8       -0.0000904561
    7    4    5    1       -0.0013368354
    7    4    5    2        0.0062183253
    7    4    5    4       -0.0032055192
    7    4    5    5       -0.1029038401
    7    4    5    6        0.0869484423
    7    4    5    7        0.0013984928
    7    5    5    1       -0.0041649853
    7    5    5    2       -0.0116789331
    7    5    5    4       -0.0107535945
    7    5    5    5       -0.0025872076
    7    5    5    6       -0.0015641999
    7    5    5    7        0.0143410302
    7    6    5    1        0.0045716600
    7    6    5    2        0.0145453103
    7    6    5    4        0.0124740213
    7    6    5    5       -0.0025727714
    7    6    5    6       -0.0015144789
    7    6    5    7       -0.0142122153
    7    7    5    1        0.0019577163
    7    7    5    2       -0.0148432129
    7    7    5    4        0.0043845912
    7    7    5    5        0.4433313028
    7    7    5    6       -0.2108856636
    7    7    5    7       -0.0010170617
    7    8    5    3        0.0000711734
    7    8    5    8        0.0006175101
    7    1    6    1        0.0010445282
    7    1    6    2       -0.0020432070
    7    1    6    4        0.0013844427
    7    1    6    5       -0.0012377419
    7    1    6    6        0.0027389559
    7    1    6    7       -0.0022368106
    7    2    6    1       -0.0012758589
    7    2    6    2       -0.0056839092
    7    2    6    4        0.0035143724
    7    2    6    5        0.0114082035
    7    2    6    6       -0.0099829018
    7    2    6    7       -0.0041465919
    7    3    6    3        0.0015252199
    7    3    6    8       -0.0007497140
    7    4    6    1       -0.0012987499
    7    4    6    2        0.0120156491
    7    4    6    4        0.0027697965
    7    4    6    5        0.0860876990
    7    4    6    6       -0.1143653506
    7    4    6    7        0.0049891303
    7    5    6    1        0.0046813168
    7    5    6    2        0.0121450854
    7    5    6    4        0.0129367832
    7    5    6    5       -0.0013105546
    7    5    6    6       -0.0042593541
    7    5    6    7       -0.0142122153
    7    6    6    1       -0.0052552741
    7    6    6    2       -0.0138628688
    7    6    6    4       -0.0141454699
    7    6    6    5       -0.0014831810
    7    6    6    6       -0.0020885120
    7    6    6    7        0.0166825909
    7    7    6    1        0.0029267169
    7    7    6    2       -0.0156733731
    7    7    6    4        0.0061876007
    7    7    6    5       -0.2108856636
    7    7    6    6        0.4426591429
    7    7    6    7        0.0067174911
    7    8    6    3       -0.0007405202
    7    8    6    8        0.0017420646
    7    1    7    1        0.0513577266
    7    1    7    2        0.0233474291
    7    1    7    4        0.0038141024
    7    1    7    5       -0.0005283864
    7    1    7    6       -0.0022219139
    7    1    7    7       -0.0134887122
    7    2    7    1        0.0233474291
    7    2    7    2        0.0569525007
    7    2    7    4        0.0137978970
    7    2    7    5       -0.0021633139
    7    2    7    6       -0.0039507267
    7    2    7    7       -0.0296003804
    7    3    7    3        0.0275351129
    7    3    7    8       -0.0168517114
    7    4    7    1        0.0038141024
    7    4    7    2        0.0137978970
    7    4    7    4        0.1992173221
    7    4    7    5        0.0018191557
    7    4    7    6        0.0051250856
    7    4    7    7       -0.0890293799
    7    5    7    1       -0.0005283864
    7    5    7    2       -0.0021633139
    7    5    7    4        0.0018191557
    7    5    7    5        0.0165771202
    7    5    7    6       -0.0154087626
    7    5    7    7       -0.0010170617
    7    6    7    1       -0.0022219139
    7    6    7    2       -0.0039507267
    7    6    7    4        0.0051250856
    7    6    7    5       -0.0154087626
    7    6    7    6        0.0167316657
    7    6    7    7        0.0067174911
    7    7    7    1       -0.0134887122
    7    7    7    2       -0.0296003804
    7    7    7    4       -0.0890293799
    7    7    7    5       -0.0010170617
    7    7    7    6        0.0067174911
    7    7    7    7        0.7872867893
    7    8    7    3       -0.0168517114
    7    8    7    8        0.0277205261
    7    1    8    3       -0.0048100838
    7    1    8    8        0.0071686036
    7    2    8    3        0.0098715481
    7    2    8    8       -0.0091922182
    7    3    8    1        0.0092110421
    7    3    8    2        0.0122801950
    7    3    8    4        0.0174147913
    7    3    8    5       -0.0000447410
    7    3    8    6       -0.0007943849
    7    3    8    7       -0.0172732291
    7    4    8    3        0.1107645978
    7    4    8    8       -0.1384035184
    7    5    8    3        0.0008476061
    7    5    8    8       -0.0008792001
    7    6    8    3        0.0016973753
    7    6    8    8       -0.0008414220
    7    7    8    3       -0.1635268110
    7    7    8    8        0.5623080424
    7    8    8    1       -0.0094426704
    7    8    8    2       -0.0061490090
    7    8    8    4       -0.0044265768
    7    8    8    5        0.0005368250
    7    8    8    6        0.0017523847
    7    8    8    7        0.0277173446
    8    1    1    3       -0.0391641080
    8    1    1    8        0.0525637661
    8    2    1    3       -0.0186738953
    8    2    1    8        0.0252916948
    8    3    1    1       -0.5009490630
    8    3    1    2       -0.0016877041
    8    3    1    4        0.0030553108
    8    3    1    5       -0.0012952879
    8    3    1    6       -0.0014756046
    8    3    1    7       -0.0055587346
    8    4    1    3       -0.0025439505
    8    4    1    8        0.0028712533
    8    5    1    3        0.0004704772
    8    5    1    8       -0.0008292950
    8    6    1    3        0.0019642593
    8    6    1    8       -0.0028248918
    8    7    1    3        0.0070723234
    8    7    1    8       -0.0094426704
    8    8    1    1        1.0024150311
    8    8    1    2       -0.0002355203
    8    8    1    4       -0.0046954936
    8    8    1    5        0.0016515700
    8    8    1    6        0.0022323107
    8    8    1    7        0.0071686036
    8    1    2    3       -0.0370218858
    8    1    2    8        0.0252916948
    8    2    2    3       -0.0508997556
    8    2    2    8        0.0450542161
    8    3    2    1       -0.0014073098
    8    3    2    2       -0.2119432300
    8    3    2    4        0.0048393131
    8    3    2    5        0.0078662360
    8    3    2    6        0.0125452370
    8    3    2    7        0.0078421424
    8    4    2    3        0.0009879363
    8    4    2    8        0.0025605583
    8    5    2    3        0.0038552448
    8    5    2    8       -0.0007543688
    8    6    2    3        0.0091623284
    8    6    2    8       -0.0030866828
    8    7    2    3        0.0233186811
    8    7    2    8       -0.0061490090
    8    8    2    1       -0.0002355203
    8    8    2    2        0.6213411728
    8    8    2    4        0.0055806883
    8    8    2    5       -0.0124231931
    8    8    2    6       -0.0170039762
    8    8    2    7       -0.0091922182
    8    1    3    1       -0.0385223656
    8    1    3    2       -0.0373259870
    8    1    3    4       -0.0069138688
    8    1    3    5        0.0008112648
    8    1    3    6        0.0024884206
    8    1    3    7        0.0093310958
    8    2    3    1       -0.0205129826
    8    2    3    2       -0.0516159864
    8    2    3    4       -0.0043535339
    8    2    3    5        0.0019468952
    8    2    3    6        0.0048765914
    8    2    3    7        0.0112137370
    8    3    3    3       -0.2062734358
    8    3    3    8        0.1553120821
    8    4    3    1       -0.0025726380
    8    4    3    2        0.0008408739
    8    4    3    4       -0.0047490755
    8    4    3    5       -0.0001803177
    8    4    3    6        0.0003754028
    8    4    3    7        0.0160728062
    8    5    3    1        0.0005929146
    8    5    3    2        0.0040228812
    8    5    3    4        0.0001835661
    8    5    3    5       -0.0061256913
    8    5    3    6        0.0078528530
    8    5    3    7       -0.0000904561
    8    6    3    1        0.0019254581
    8    6    3    2        0.0092310885
    8    6    3    4        0.0014237731
    8    6    3    5        0.0095787248
    8    6    3    6       -0.0114761793
    8    6    3    7       -0.0007497140
    8    7    3    1        0.0069762365
    8    7    3    2        0.0236212372
    8    7    3    4        0.0268849864
    8    7    3    5        0.0000711734
    8    7    3    6       -0.0007405202
    8    7    3    7       -0.0168517114
    8    8    3    3        0.6336407146
    8    8    3    8       -0.1720598004
    8    1    4    3       -0.0068825329
    8    1    4    8        0.0028712533
    8    2    4    3       -0.0038881893
    8    2    4    8        0.0025605583
    8    3    4    1        0.0029969334
    8    3    4    2        0.0047355439
    8    3    4    4       -0.1428425431
    8    3    4    5       -0.0030630794
    8    3    4    6       -0.0005775138
    8    3    4    7        0.1154027990
    8    4    4    3       -0.0046463329
    8    4    4    8        0.0165965893
    8    5    4    3        0.0001403369
    8    5    4    8        0.0005033412
    8    6    4    3        0.0014916429
    8    6    4    8        0.0002770094
    8    7    4    3        0.0262956283
    8    7    4    8       -0.0044265768
    8    8    4    1       -0.0046954936
    8    8    4    2        0.0055806883
    8    8    4    4        0.5496252843
    8    8    4    5        0.0048620854
    8    8    4    6        0.0028456056
    8    8    4    7       -0.1384035184
    8    1    5    3        0.0007812315
    8    1    5    8       -0.0008292950
    8    2    5    3        0.0023353103
    8    2    5    8       -0.0007543688
    8    3    5    1       -0.0013216121
    8    3    5    2        0.0085349998
    8    3    5    4       -0.0031544602
    8    3    5    5       -0.1017192740
    8    3    5    6        0.0954384778
    8    3    5    7        0.0011696001
    8    4    5    3       -0.0001951011
    8    4    5    8        0.0005033412
    8    5    5    3       -0.0059019270
    8    5    5    8        0.0108823984
    8    6    5    3        0.0085046907
    8    6    5    8       -0.0076998581
    8    7    5    3        0.0001671960
    8    7    5    8        0.0005368250
    8    8    5    1        0.0016515700
    8    8    5    2       -0.0124231931
    8    8    5    4        0.0048620854
    8    8    5    5        0.4269155448
    8    8    5    6       -0.1823373114
    8    8    5    7       -0.0008792001
    8    1    6    3        0.0024878202
    8    1    6    8       -0.0028248918
    8    2    6    3        0.0057687877
    8    2    6    8       -0.0030866828
    8    3    6    1       -0.0012614713
    8    3    6    2        0.0136348548
    8    3    6    4       -0.0009988896
    8    3    6    5        0.0999327099
    8    3    6    6       -0.1136515637
    8    3    6    7        0.0015569474
    8    4    6    3        0.0002722937
    8    4    6    8        0.0002770094
    8    5    6    3        0.0118446501
    8    5    6    8       -0.0076998581
    8    6    6    3       -0.0103987286
    8    6    6    8        0.0099411796
    8    7    6    3       -0.0008312161
    8    7    6    8        0.0017523847
    8    8    6    1        0.0022323107
    8    8    6    2       -0.0170039762
    8    8    6    4        0.0028456056
    8    8    6    5       -0.1823373114
    8    8    6    6        0.4249943504
    8    8    6    7       -0.0008414220
    8    1    7    3        0.0092110421
    8    1    7    8       -0.0094426704
    8    2    7    3        0.0122801950
    8    2    7    8       -0.0061490090
    8    3    7    1       -0.0048100838
    8    3    7    2        0.0098715481
    8    3    7    4        0.1107645978
    8    3    7    5        0.0008476061
    8    3    7    6        0.0016973753
    8    3    7    7       -0.1635268110
    8    4    7    3        0.0174147913
    8    4    7    8       -0.0044265768
    8    5    7    3       -0.0000447410
    8    5    7    8        0.0005368250
    8    6    7    3       -0.0007943849
    8    6    7    8        0.0017523847
    8    7    7    3       -0.0172732291
    8    7    7    8        0.0277173446
    8    8    7    1        0.0071686036
    8    8    7    2       -0.0091922182
    8    8    7    4       -0.1384035184
    8    8    7    5       -0.0008792001
    8    8    7    6       -0.0008414220
    8    8    7    7        0.5623080424
    8    1    8    1        0.0517180343
    8    1    8    2        0.0255493383
    8    1    8    4        0.0026634537
    8    1    8    5       -0.0009066204
    8    1    8    6       -0.0027750118
    8    1    8    7       -0.0092744099
    8    2    8    1        0.0255493383
    8    2    8    2        0.0497296545
    8    2    8    4        0.0028528684
    8    2    8    5       -0.0010485079
    8    2    8    6       -0.0032105234
    8    2    8    7       -0.0068498250
    8    3    8    3        0.1508703014
    8    3    8    8       -0.1720598004
    8    4    8    1        0.0026634537
    8    4    8    2        0.0028528684
    8    4    8    4        0.0154150424
    8    4    8    5        0.0004042794
    8    4    8    6        0.0003191237
    8    4    8    7       -0.0044630053
    8    5    8    1       -0.0009066204
    8    5    8    2       -0.0010485079
    8    5    8    4        0.0004042794
    8    5    8    5        0.0122995409
    8    5    8    6       -0.0084938903
    8    5    8    7        0.0006175101
    8    6    8    1       -0.0027750118
    8    6    8    2       -0.0032105234
    8    6    8    4        0.0003191237
    8    6    8    5       -0.0084938903
    8    6    8    6        0.0099766308
    8    6    8    7        0.0017420646
    8    7    8    1       -0.0092744099
    8    7    8    2       -0.0068498250
    8    7    8    4       -0.0044630053
    8    7    8    5        0.0006175101
    8    7    8    6        0.0017420646
    8    7    8    7        0.0277205261
    8    8    8    3       -0.1720598004
    8    8    8    8        0.5753483244
 end_two_electron_integrals

 Parallel integral file used       3 records with       0 large values


 Task  times  cpu:       48.8s     wall:       49.2s


                                NWChem Input Module
                                -------------------


 Summary of allocated global arrays
-----------------------------------
  No active global arrays


MA_summarize_allocated_blocks: starting scan ...
MA_summarize_allocated_blocks: scan completed: 0 heap blocks, 0 stack blocks
MA usage statistics:

	allocation statistics:
					      heap	     stack
					      ----	     -----
	current number of blocks	         0	         0
	maximum number of blocks	        18	        42
	current total bytes		         0	         0
	maximum total bytes		   5323032	 716782712
	maximum total K-bytes		      5324	    716783
	maximum total M-bytes		         6	       717


                                     CITATION
                                     --------
                Please cite the following reference when publishing
                           results obtained with NWChem:

          E. Apra, E. J. Bylaska, W. A. de Jong, N. Govind, K. Kowalski,
       T. P. Straatsma, M. Valiev, H. J. J. van Dam, Y. Alexeev, J. Anchell,
       V. Anisimov, F. W. Aquino, R. Atta-Fynn, J. Autschbach, N. P. Bauman,
     J. C. Becca, D. E. Bernholdt, K. Bhaskaran-Nair, S. Bogatko, P. Borowski,
         J. Boschen, J. Brabec, A. Bruner, E. Cauet, Y. Chen, G. N. Chuev,
      C. J. Cramer, J. Daily, M. J. O. Deegan, T. H. Dunning Jr., M. Dupuis,
   K. G. Dyall, G. I. Fann, S. A. Fischer, A. Fonari, H. Fruchtl, L. Gagliardi,
      J. Garza, N. Gawande, S. Ghosh, K. Glaesemann, A. W. Gotz, J. Hammond,
       V. Helms, E. D. Hermes, K. Hirao, S. Hirata, M. Jacquelin, L. Jensen,
   B. G. Johnson, H. Jonsson, R. A. Kendall, M. Klemm, R. Kobayashi, V. Konkov,
      S. Krishnamoorthy, M. Krishnan, Z. Lin, R. D. Lins, R. J. Littlefield,
      A. J. Logsdail, K. Lopata, W. Ma, A. V. Marenich, J. Martin del Campo,
   D. Mejia-Rodriguez, J. E. Moore, J. M. Mullin, T. Nakajima, D. R. Nascimento,
    J. A. Nichols, P. J. Nichols, J. Nieplocha, A. Otero-de-la-Roza, B. Palmer,
    A. Panyala, T. Pirojsirikul, B. Peng, R. Peverati, J. Pittner, L. Pollack,
   R. M. Richard, P. Sadayappan, G. C. Schatz, W. A. Shelton, D. W. Silverstein,
   D. M. A. Smith, T. A. Soares, D. Song, M. Swart, H. L. Taylor, G. S. Thomas,
            V. Tipparaju, D. G. Truhlar, K. Tsemekhman, T. Van Voorhis,
      A. Vazquez-Mayagoitia, P. Verma, O. Villa, A. Vishnu, K. D. Vogiatzis,
        D. Wang, J. H. Weare, M. J. Williamson, T. L. Windus, K. Wolinski,
        A. T. Wong, Q. Wu, C. Yang, Q. Yu, M. Zacharias, Z. Zhang, Y. Zhao,
                                and R. J. Harrison
                        "NWChem: Past, present, and future
                         J. Chem. Phys. 152, 184102 (2020)
                               doi:10.1063/5.0004997

                                      AUTHORS
                                      -------
  E. Apra, E. J. Bylaska, N. Govind, K. Kowalski, M. Valiev, D. Mejia-Rodriguez,
       A. Kunitsa, N. P. Bauman, A. Panyala, W. A. de Jong, T. P. Straatsma,
        H. J. J. van Dam, D. Wang, T. L. Windus, J. Hammond, J. Autschbach,
    K. Bhaskaran-Nair, J. Brabec, K. Lopata, S. A. Fischer, S. Krishnamoorthy,
     M. Jacquelin, W. Ma, M. Klemm, O. Villa, Y. Chen, V. Anisimov, F. Aquino,
    S. Hirata, M. T. Hackler, Eric Hermes, L. Jensen, J. E. Moore, J. C. Becca,
      V. Konjkov, T. Risthaus, M. Malagoli, A. Marenich, A. Otero-de-la-Roza,
        J. Mullin, P. Nichols, R. Peverati, J. Pittner, Y. Zhao, P.-D. Fan,
        A. Fonari, M. J. Williamson, R. J. Harrison, J. R. Rehr, M. Dupuis,
     D. Silverstein, D. M. A. Smith, J. Nieplocha, V. Tipparaju, M. Krishnan,
     B. E. Van Kuiken, A. Vazquez-Mayagoitia, M. Swart, Q. Wu, T. Van Voorhis,
     A. A. Auer, M. Nooijen, L. D. Crosby, E. Brown, G. Cisneros, G. I. Fann,
   H. Fruchtl, J. Garza, K. Hirao, R. A. Kendall, J. A. Nichols, K. Tsemekhman,
    K. Wolinski, J. Anchell, D. E. Bernholdt, P. Borowski, T. Clark, D. Clerc,
   H. Dachsel, M. J. O. Deegan, K. Dyall, D. Elwood, E. Glendening, M. Gutowski,
   A. C. Hess, J. Jaffe, B. G. Johnson, J. Ju, R. Kobayashi, R. Kutteh, Z. Lin,
   R. Littlefield, X. Long, B. Meng, T. Nakajima, S. Niu, L. Pollack, M. Rosing,
   K. Glaesemann, G. Sandrone, M. Stave, H. Taylor, G. Thomas, J. H. van Lenthe,
                               A. T. Wong, Z. Zhang.

 Total times  cpu:       54.0s     wall:       58.3s
