 argument  1 = input.nw
  NWChem w/ OpenMP: maximum threads =    1



============================== echo of input deck ==============================
 echo
 start H2O
 title "H2O"

 memory total 24 gb

 geometry units bohr
 symmetry c1
        O  0.00000000  0.00000000  0.00000000
        H  0.00000000  4.1477625  0.00000000
        H  1.72558000 -0.64860000  0.00000000
 end

 basis spherical
   * library 6-311++G**
 end

 mcscf
   active  8
   actelec 10
   multiplicity 1
   maxiter 40
   vectors input h2o.mos
   vectors output h2o.mos
 end

 task mcscf

 scf
   vectors input h2o.mos
   vectors output h2o-trash.mos
   noscf
 end

 tce
   2eorb
   2emet 13
   ccsd
   maxiter 300
 end

# set tce:print_integrals T
# set tce:qorb 8
# set tce:qela 5
# set tce:qelb 5

 set tce:qducc T
 set tce:nactv 3
 set tce:nonhf T
 set tce:ducc_model 6

 set tce:printtol 0.02

 task tce
================================================================================


                                         
                                         


             Northwest Computational Chemistry Package (NWChem) 7.0.1
             --------------------------------------------------------


                    Environmental Molecular Sciences Laboratory
                       Pacific Northwest National Laboratory
                                Richland, WA 99352

                              Copyright (c) 1994-2020
                       Pacific Northwest National Laboratory
                            Battelle Memorial Institute

             NWChem is an open-source computational chemistry package
                        distributed under the terms of the
                      Educational Community License (ECL) 2.0
             A copy of the license is included with this distribution
                              in the LICENSE.TXT file

                                  ACKNOWLEDGMENT
                                  --------------

            This software and its documentation were developed at the
            EMSL at Pacific Northwest National Laboratory, a multiprogram
            national laboratory, operated for the U.S. Department of Energy
            by Battelle under Contract Number DE-AC05-76RL01830. Support
            for this work was provided by the Department of Energy Office
            of Biological and Environmental Research, Office of Basic
            Energy Sciences, and the Office of Advanced Scientific Computing.


           Job information
           ---------------

    hostname        = WE46210
    program         = /home/baum612/code/nwchem/bin/LINUX64/nwchem
    date            = Thu Sep  5 12:56:38 2024

    compiled        = Wed_Sep_04_02:00:17_2024
    source          = /home/baum612/code/nwchem
    nwchem branch   = 7.0.0
    nwchem revision = nwchem_on_git-4191-g39d87d64de
    ga revision     = 5.8.1
    use scalapack   = F
    input           = input.nw
    prefix          = H2O.
    data base       = ./H2O.db
    status          = startup
    nproc           =        1
    time left       =     -1s



           Memory information
           ------------------

    heap     =  805306366 doubles =   6144.0 Mbytes
    stack    =  805306363 doubles =   6144.0 Mbytes
    global   = 1610612736 doubles =  12288.0 Mbytes (distinct from heap & stack)
    total    = 3221225465 doubles =  24576.0 Mbytes
    verify   = yes
    hardfail = no 


           Directory information
           ---------------------

  0 permanent = .
  0 scratch   = .




                                NWChem Input Module
                                -------------------


                                        H2O
                                        ---
 Turning off AUTOSYM since
 SYMMETRY directive was detected!


          ------
          auto-z
          ------
  autoz: The atoms group into disjoint clusters
 cluster   1:    1    3
 cluster   2:    2
 Connecting clusters   1   2 via atoms    1    2 r = 2.19
  autoz: regenerating connections with new bonds
  no constraints, skipping    0.0000000000000000     
  no constraints, skipping    0.0000000000000000     


                             Geometry "geometry" -> ""
                             -------------------------

 Output coordinates in a.u. (scale by  1.000000000 to convert to a.u.)

  No.       Tag          Charge          X              Y              Z
 ---- ---------------- ---------- -------------- -------------- --------------
    1 O                    8.0000    -0.17255800    -0.34991625     0.00000000
    2 H                    1.0000    -0.17255800     3.79784625     0.00000000
    3 H                    1.0000     1.55302200    -0.99851625     0.00000000

      Atomic Mass 
      ----------- 

      O                 15.994910
      H                  1.007825


 Effective nuclear repulsion energy (a.u.)       6.4646210005

            Nuclear Dipole moment (a.u.) 
            ----------------------------
        X                 Y               Z
 ---------------- ---------------- ----------------
    -0.0000000000     0.0000000000     0.0000000000



                                Z-matrix (autoz)
                                -------- 

 Units are Angstrom for bonds and degrees for angles

      Type          Name      I     J     K     L     M      Value
      ----------- --------  ----- ----- ----- ----- ----- ----------
    1 Stretch                  1     2                       2.19490
    2 Stretch                  1     3                       0.97551
    3 Bend                     2     1     3               110.59992


            XYZ format geometry
            -------------------
     3
 geometry
 O                    -0.09131377    -0.18516772     0.00000000
 H                    -0.09131377     2.00973383     0.00000000
 H                     0.82182391    -0.52839208     0.00000000

 ==============================================================================
                                internuclear distances
 ------------------------------------------------------------------------------
       center one      |      center two      | atomic units |       a.u.
 ------------------------------------------------------------------------------
    3 H                |   1 O                |     1.84345  |     1.84345
 ------------------------------------------------------------------------------
                         number of included internuclear distances:          1
 ==============================================================================





 Summary of "ao basis" -> "" (spherical)
 ------------------------------------------------------------------------------
       Tag                 Description            Shells   Functions and Types
 ---------------- ------------------------------  ------  ---------------------
 *                         6-311++G**                 on all atoms 


                      Basis "ao basis" -> "ao basis" (spherical)
                      -----
  O (Oxygen)
  ----------
            Exponent  Coefficients 
       -------------- ---------------------------------------------------------
  1 S  8.58850000E+03  0.001895
  1 S  1.29723000E+03  0.014386
  1 S  2.99296000E+02  0.070732
  1 S  8.73771000E+01  0.240001
  1 S  2.56789000E+01  0.594797
  1 S  3.74004000E+00  0.280802

  2 S  4.21175000E+01  0.113889
  2 S  9.62837000E+00  0.920811
  2 S  2.85332000E+00 -0.003274

  3 P  4.21175000E+01  0.036511
  3 P  9.62837000E+00  0.237153
  3 P  2.85332000E+00  0.819702

  4 S  9.05661000E-01  1.000000

  5 P  9.05661000E-01  1.000000

  6 S  2.55611000E-01  1.000000

  7 P  2.55611000E-01  1.000000

  8 S  8.45000000E-02  1.000000

  9 P  8.45000000E-02  1.000000

 10 D  1.29200000E+00  1.000000

  H (Hydrogen)
  ------------
            Exponent  Coefficients 
       -------------- ---------------------------------------------------------
  1 S  3.38650000E+01  0.025494
  1 S  5.09479000E+00  0.190373
  1 S  1.15879000E+00  0.852161

  2 S  3.25840000E-01  1.000000

  3 S  1.02741000E-01  1.000000

  4 S  3.60000000E-02  1.000000

  5 P  7.50000000E-01  1.000000



 Summary of "ao basis" -> "ao basis" (spherical)
 ------------------------------------------------------------------------------
       Tag                 Description            Shells   Functions and Types
 ---------------- ------------------------------  ------  ---------------------
 O                         6-311++G**               10       22   5s4p1d
 H                         6-311++G**                5        7   4s1p



                            NWChem Direct MCSCF Module
                            --------------------------


                                        H2O


     -----------------------------------
       Basis functions:             36
       Inactive shells:              0
       Active shells:                8
       Active electrons:            10
       Symmetry:                    a       
       Multiplicity:                 1
       Orbital rotations:          224
     -----------------------------------

     -----------------------------------
       E2 extrapolation:             F
       Conjugacy:                    T
       Micro CI relax:               T
       Canonical orbitals:           T
       Maximum iterations:          40
       Converge threshold:    1.00E-04
       Conjugacy resets:            20
       Initial levelshift:        0.10
     -----------------------------------

 Loading old vectors from job with title :

H2O


   input molecular orbitals = ./h2o.mos
  output molecular orbtials = ./h2o.mos

       No. of determinants:          3136


  Starting Orbital Energies
   -20.621639    -1.313950    -0.677829    -0.551147    -0.410432    -0.163812
    -0.026446    -0.013833     0.073883     0.093922     0.237344     0.280943
     0.317056     0.465266     0.547511     0.608753     1.079750     1.198776
     1.486040     1.545374     1.571511     1.585865     1.586046     1.821158
     2.225260     2.682795     2.794258     3.152589     3.165373     3.453391
     3.468967     4.151081     5.283842     5.478727     5.923409    51.455814

  Orbital Symmetry Irreps
a    a    a    a    a    a    a    a    a    a    a    a    a    a    a   
a    a    a    a    a    a    a    a    a    a    a    a    a    a    a   
a    a    a    a    a    a   

 Integral file          = ./H2O.aoints.0
 Record size in doubles =  65536        No. of integs per rec  =  43688
 Max. records in memory =     10        Max. records in file   = 232485
 No. of bits per label  =      8        No. of bits per value  =     64


 #quartets = 2.208D+04 #integrals = 9.934D+04 #direct =  0.0% #cached =100.0%




          %%%%% MacroIteration   1 %%%%%


          Number of sigma calls:       23
                       o<<<<< (aa):             0.00
                       o<<<<< (bb):             0.00
                       o<<<<< (ab):             0.06
                       o<<<<< (total)           0.07
                       o<<<<< (aa) ff           0.00
                       o<<<<< (aa) gop          0.00
                       o<<<<< (aa) dot          0.00
                       o<<<<< (ab) str          0.00
                       o<<<<< (ab) gath         0.00
                       o<<<<< (ab) dotab        0.00
                       o<<<<< (ab) scat         0.00
                       o<<<<< (ab) sync         0.00
                       o<<<<< Density           0.01
                       o<<<<< Density one       0.00
                       o<<<<< Density two       0.00
                       o<<<<< Density ab        0.01
                       o<<<<< Spin adapt        0.32
                       o<<<<< Symm adapt        0.00

                       o<<<<< (ab) max sync:      0.00

           >>>| Valence CI:            -82.440074024312
           >>>| MCSCF energy:          -75.975453023766
           >>>| Gradient norm:          0.116510926D-01

                              ----- Line search ------

        step       energy         lsg     num-lsg   num-lsh   lsrat    time
      ------- ---------------- --------- --------- --------- ------- --------
       0.0000     -75.97545302 -3.05D-05  0.00D+00  0.00D+00 0.0D+00      0.6

          Number of sigma calls:       23
                       o<<<<< (aa):             0.00
                       o<<<<< (bb):             0.00
                       o<<<<< (ab):             0.06
                       o<<<<< (total)           0.07
                       o<<<<< (aa) ff           0.00
                       o<<<<< (aa) gop          0.00
                       o<<<<< (aa) dot          0.00
                       o<<<<< (ab) str          0.00
                       o<<<<< (ab) gath         0.00
                       o<<<<< (ab) dotab        0.00
                       o<<<<< (ab) scat         0.00
                       o<<<<< (ab) sync         0.00
                       o<<<<< Density           0.00
                       o<<<<< Density one       0.00
                       o<<<<< Density two       0.00
                       o<<<<< Density ab        0.00
                       o<<<<< Spin adapt        0.45
                       o<<<<< Symm adapt        0.00

                       o<<<<< (ab) max sync:      0.00
       1.0000     -75.97547098 -5.34D-06 -5.36D-06  2.52D-05 1.7D-01      1.2

          Number of sigma calls:       21
                       o<<<<< (aa):             0.00
                       o<<<<< (bb):             0.00
                       o<<<<< (ab):             0.06
                       o<<<<< (total)           0.07
                       o<<<<< (aa) ff           0.00
                       o<<<<< (aa) gop          0.00
                       o<<<<< (aa) dot          0.00
                       o<<<<< (ab) str          0.00
                       o<<<<< (ab) gath         0.00
                       o<<<<< (ab) dotab        0.00
                       o<<<<< (ab) scat         0.00
                       o<<<<< (ab) sync         0.00
                       o<<<<< Density           0.01
                       o<<<<< Density one       0.00
                       o<<<<< Density two       0.00
                       o<<<<< Density ab        0.01
                       o<<<<< Spin adapt        0.44
                       o<<<<< Symm adapt        0.00

                       o<<<<< (ab) max sync:      0.00
       1.2121     -75.97547154  2.47D-08  2.40D-08  2.53D-05 8.1D-04      1.7
     --- Orbitals canonicalized ---



          %%%%% MacroIteration   2 %%%%%


          Number of sigma calls:       23
                       o<<<<< (aa):             0.00
                       o<<<<< (bb):             0.00
                       o<<<<< (ab):             0.06
                       o<<<<< (total)           0.07
                       o<<<<< (aa) ff           0.00
                       o<<<<< (aa) gop          0.00
                       o<<<<< (aa) dot          0.00
                       o<<<<< (ab) str          0.00
                       o<<<<< (ab) gath         0.00
                       o<<<<< (ab) dotab        0.00
                       o<<<<< (ab) scat         0.00
                       o<<<<< (ab) sync         0.00
                       o<<<<< Density           0.00
                       o<<<<< Density one       0.00
                       o<<<<< Density two       0.00
                       o<<<<< Density ab        0.00
                       o<<<<< Spin adapt        0.28
                       o<<<<< Symm adapt        0.00

                       o<<<<< (ab) max sync:      0.00

           >>>| Valence CI:            -82.440092542926
           >>>| MCSCF energy:          -75.975471542381
           >>>| Gradient norm:          0.189720021D-02
     --- Warning:    5 Hessian diagonals < 0.05 ---
     --- Conjugacy reset ---

                              ----- Line search ------

        step       energy         lsg     num-lsg   num-lsh   lsrat    time
      ------- ---------------- --------- --------- --------- ------- --------
       0.0000     -75.97547154 -9.65D-07  0.00D+00  0.00D+00 0.0D+00      2.1

          Number of sigma calls:       18
                       o<<<<< (aa):             0.00
                       o<<<<< (bb):             0.00
                       o<<<<< (ab):             0.05
                       o<<<<< (total)           0.06
                       o<<<<< (aa) ff           0.00
                       o<<<<< (aa) gop          0.00
                       o<<<<< (aa) dot          0.00
                       o<<<<< (ab) str          0.00
                       o<<<<< (ab) gath         0.00
                       o<<<<< (ab) dotab        0.00
                       o<<<<< (ab) scat         0.00
                       o<<<<< (ab) sync         0.00
                       o<<<<< Density           0.00
                       o<<<<< Density one       0.00
                       o<<<<< Density two       0.00
                       o<<<<< Density ab        0.00
                       o<<<<< Spin adapt        0.28
                       o<<<<< Symm adapt        0.00

                       o<<<<< (ab) max sync:      0.00
       1.0000     -75.97547212 -1.96D-07 -1.97D-07  7.68D-07 2.0D-01      2.5

          Number of sigma calls:       14
                       o<<<<< (aa):             0.00
                       o<<<<< (bb):             0.00
                       o<<<<< (ab):             0.04
                       o<<<<< (total)           0.05
                       o<<<<< (aa) ff           0.00
                       o<<<<< (aa) gop          0.00
                       o<<<<< (aa) dot          0.00
                       o<<<<< (ab) str          0.00
                       o<<<<< (ab) gath         0.00
                       o<<<<< (ab) dotab        0.00
                       o<<<<< (ab) scat         0.00
                       o<<<<< (ab) sync         0.00
                       o<<<<< Density           0.01
                       o<<<<< Density one       0.00
                       o<<<<< Density two       0.00
                       o<<<<< Density ab        0.01
                       o<<<<< Spin adapt        0.29
                       o<<<<< Symm adapt        0.00

                       o<<<<< (ab) max sync:      0.00
       1.2558     -75.97547215  5.13D-11  4.92D-11  7.68D-07 5.3D-05      2.9



          %%%%% MacroIteration   3 %%%%%


          Number of sigma calls:        1
                       o<<<<< (aa):             0.00
                       o<<<<< (bb):             0.00
                       o<<<<< (ab):             0.00
                       o<<<<< (total)           0.00
                       o<<<<< (aa) ff           0.00
                       o<<<<< (aa) gop          0.00
                       o<<<<< (aa) dot          0.00
                       o<<<<< (ab) str          0.00
                       o<<<<< (ab) gath         0.00
                       o<<<<< (ab) dotab        0.00
                       o<<<<< (ab) scat         0.00
                       o<<<<< (ab) sync         0.00
                       o<<<<< Density           0.01
                       o<<<<< Density one       0.00
                       o<<<<< Density two       0.00
                       o<<<<< Density ab        0.01
                       o<<<<< Spin adapt        0.00
                       o<<<<< Symm adapt        0.00

                       o<<<<< (ab) max sync:      0.00

           >>>| Valence CI:            -82.440093148663
           >>>| MCSCF energy:          -75.975472148118
           >>>| Gradient norm:          0.546825037D-03
     --- Warning:    5 Hessian diagonals < 0.05 ---

                              ----- Line search ------

        step       energy         lsg     num-lsg   num-lsh   lsrat    time
      ------- ---------------- --------- --------- --------- ------- --------
       0.0000     -75.97547215 -5.62D-08  0.00D+00  0.00D+00 0.0D+00      3.0

          Number of sigma calls:       15
                       o<<<<< (aa):             0.00
                       o<<<<< (bb):             0.00
                       o<<<<< (ab):             0.04
                       o<<<<< (total)           0.04
                       o<<<<< (aa) ff           0.00
                       o<<<<< (aa) gop          0.00
                       o<<<<< (aa) dot          0.00
                       o<<<<< (ab) str          0.00
                       o<<<<< (ab) gath         0.00
                       o<<<<< (ab) dotab        0.00
                       o<<<<< (ab) scat         0.00
                       o<<<<< (ab) sync         0.00
                       o<<<<< Density           0.01
                       o<<<<< Density one       0.00
                       o<<<<< Density two       0.00
                       o<<<<< Density ab        0.01
                       o<<<<< Spin adapt        0.26
                       o<<<<< Symm adapt        0.00

                       o<<<<< (ab) max sync:      0.00
       1.0000     -75.97547218 -1.21D-08 -1.21D-08  4.42D-08 2.1D-01      3.3

          Number of sigma calls:       12
                       o<<<<< (aa):             0.00
                       o<<<<< (bb):             0.00
                       o<<<<< (ab):             0.04
                       o<<<<< (total)           0.04
                       o<<<<< (aa) ff           0.00
                       o<<<<< (aa) gop          0.00
                       o<<<<< (aa) dot          0.00
                       o<<<<< (ab) str          0.00
                       o<<<<< (ab) gath         0.00
                       o<<<<< (ab) dotab        0.00
                       o<<<<< (ab) scat         0.00
                       o<<<<< (ab) sync         0.00
                       o<<<<< Density           0.00
                       o<<<<< Density one       0.00
                       o<<<<< Density two       0.00
                       o<<<<< Density ab        0.00
                       o<<<<< Spin adapt        0.22
                       o<<<<< Symm adapt        0.00

                       o<<<<< (ab) max sync:      0.00
       1.2733     -75.97547218 -1.30D-12 -3.45D-12  4.42D-08 2.3D-05      3.6



          %%%%% MacroIteration   4 %%%%%


          Number of sigma calls:        1
                       o<<<<< (aa):             0.00
                       o<<<<< (bb):             0.00
                       o<<<<< (ab):             0.00
                       o<<<<< (total)           0.00
                       o<<<<< (aa) ff           0.00
                       o<<<<< (aa) gop          0.00
                       o<<<<< (aa) dot          0.00
                       o<<<<< (ab) str          0.00
                       o<<<<< (ab) gath         0.00
                       o<<<<< (ab) dotab        0.00
                       o<<<<< (ab) scat         0.00
                       o<<<<< (ab) sync         0.00
                       o<<<<< Density           0.01
                       o<<<<< Density one       0.00
                       o<<<<< Density two       0.00
                       o<<<<< Density ab        0.01
                       o<<<<< Spin adapt        0.00
                       o<<<<< Symm adapt        0.00

                       o<<<<< (ab) max sync:      0.00

           >>>| Valence CI:            -82.440093184459
           >>>| MCSCF energy:          -75.975472183914
           >>>| Gradient norm:          0.141977712D-03
     --- Warning:    5 Hessian diagonals < 0.05 ---

                              ----- Line search ------

        step       energy         lsg     num-lsg   num-lsh   lsrat    time
      ------- ---------------- --------- --------- --------- ------- --------
       0.0000     -75.97547218 -3.92D-09  0.00D+00  0.00D+00 0.0D+00      3.7

          Number of sigma calls:       12
                       o<<<<< (aa):             0.00
                       o<<<<< (bb):             0.00
                       o<<<<< (ab):             0.04
                       o<<<<< (total)           0.04
                       o<<<<< (aa) ff           0.00
                       o<<<<< (aa) gop          0.00
                       o<<<<< (aa) dot          0.00
                       o<<<<< (ab) str          0.00
                       o<<<<< (ab) gath         0.00
                       o<<<<< (ab) dotab        0.00
                       o<<<<< (ab) scat         0.00
                       o<<<<< (ab) sync         0.00
                       o<<<<< Density           0.01
                       o<<<<< Density one       0.00
                       o<<<<< Density two       0.00
                       o<<<<< Density ab        0.01
                       o<<<<< Spin adapt        0.27
                       o<<<<< Symm adapt        0.00

                       o<<<<< (ab) max sync:      0.00
       1.0000     -75.97547219 -1.06D-09 -1.06D-09  2.86D-09 2.7D-01      4.1

          Number of sigma calls:       11
                       o<<<<< (aa):             0.00
                       o<<<<< (bb):             0.00
                       o<<<<< (ab):             0.03
                       o<<<<< (total)           0.04
                       o<<<<< (aa) ff           0.00
                       o<<<<< (aa) gop          0.00
                       o<<<<< (aa) dot          0.00
                       o<<<<< (ab) str          0.00
                       o<<<<< (ab) gath         0.00
                       o<<<<< (ab) dotab        0.00
                       o<<<<< (ab) scat         0.00
                       o<<<<< (ab) sync         0.00
                       o<<<<< Density           0.01
                       o<<<<< Density one       0.00
                       o<<<<< Density two       0.00
                       o<<<<< Density ab        0.01
                       o<<<<< Spin adapt        0.24
                       o<<<<< Symm adapt        0.00

                       o<<<<< (ab) max sync:      0.00
       1.3704     -75.97547219 -1.02D-13 -1.21D-12  2.86D-09 2.6D-05      4.4



          %%%%% MacroIteration   5 %%%%%


          Number of sigma calls:        1
                       o<<<<< (aa):             0.00
                       o<<<<< (bb):             0.00
                       o<<<<< (ab):             0.00
                       o<<<<< (total)           0.00
                       o<<<<< (aa) ff           0.00
                       o<<<<< (aa) gop          0.00
                       o<<<<< (aa) dot          0.00
                       o<<<<< (ab) str          0.00
                       o<<<<< (ab) gath         0.00
                       o<<<<< (ab) dotab        0.00
                       o<<<<< (ab) scat         0.00
                       o<<<<< (ab) sync         0.00
                       o<<<<< Density           0.00
                       o<<<<< Density one       0.00
                       o<<<<< Density two       0.00
                       o<<<<< Density ab        0.00
                       o<<<<< Spin adapt        0.00
                       o<<<<< Symm adapt        0.00

                       o<<<<< (ab) max sync:      0.00

           >>>| Valence CI:            -82.440093187146
           >>>| MCSCF energy:          -75.975472186601
           >>>| Gradient norm:          0.988412839D-05




     ==============================
            MCSCF Converged
     ==============================



          Canonical Eigenvalues

              1      
    1  -20.6221
    2   -1.3145
    3   -0.6784
    4   -0.5519
    5   -0.4031
    6   -0.1712
    7   -0.0264
    8   -0.0138
    9    0.0736
   10    0.0944
   11    0.2373
   12    0.2806
   13    0.3162
   14    0.4637
   15    0.5506
   16    0.6053
   17    1.0802
   18    1.2013
   19    1.4937
   20    1.5487
   21    1.5700
   22    1.5824
   23    1.5848
   24    1.7956
   25    2.2238
   26    2.6838
   27    2.7904
   28    3.1517
   29    3.1606
   30    3.4526
   31    3.4682
   32    4.1502
   33    5.2808
   34    5.4732
   35    5.9206
   36   51.4551


          Converged CI vector

   Index           Coefficient          Config. Occupation
         1         -0.80352688          1  2  3  4  5  1  2  3  4  5
         2         -0.23418581          1  2  3  4  5  1  2  3  4  6
        23          0.05163751          1  2  3  4  5  1  2  3  5  8
         9          0.03272131          1  2  3  4  5  1  2  4  5  7
        41         -0.02311837          1  2  3  4  5  1  2  5  7  8
        57         -0.23418581          1  2  3  4  6  1  2  3  4  5
        58          0.46032001          1  2  3  4  6  1  2  3  4  6
        83         -0.03437315          1  2  3  4  6  1  2  3  6  8
        69         -0.02286838          1  2  3  4  6  1  2  4  6  7
      1233          0.05163751          1  2  3  5  8  1  2  3  4  5
      1255          0.04749486          1  2  3  5  8  1  2  3  5  8
      1241          0.02865334          1  2  3  5  8  1  2  4  5  7
      1458         -0.03437315          1  2  3  6  8  1  2  3  4  6
      1483         -0.02990278          1  2  3  6  8  1  2  3  6  8
       449          0.03272131          1  2  4  5  7  1  2  3  4  5
       471          0.02865334          1  2  4  5  7  1  2  3  5  8
       457          0.06073006          1  2  4  5  7  1  2  4  5  7
       458          0.02553901          1  2  4  5  7  1  3  4  5  7
       674         -0.02286838          1  2  4  6  7  1  2  3  4  6
       685         -0.03633445          1  2  4  6  7  1  2  4  6  7
      2241         -0.02311837          1  2  5  7  8  1  2  3  4  5
       513          0.02553901          1  3  4  5  7  1  2  4  5  7
       514          0.02404661          1  3  4  5  7  1  3  4  5  7

          Number of sigma calls:        1
                       o<<<<< (aa):             0.00
                       o<<<<< (bb):             0.00
                       o<<<<< (ab):             0.00
                       o<<<<< (total)           0.00
                       o<<<<< (aa) ff           0.00
                       o<<<<< (aa) gop          0.00
                       o<<<<< (aa) dot          0.00
                       o<<<<< (ab) str          0.00
                       o<<<<< (ab) gath         0.00
                       o<<<<< (ab) dotab        0.00
                       o<<<<< (ab) scat         0.00
                       o<<<<< (ab) sync         0.00
                       o<<<<< Density           0.00
                       o<<<<< Density one       0.00
                       o<<<<< Density two       0.00
                       o<<<<< Density ab        0.00
                       o<<<<< Spin adapt        0.00
                       o<<<<< Symm adapt        0.00

                       o<<<<< (ab) max sync:      0.00



          Natural orbital occupation numbers

              1      
    1    2.0000
    2    1.9987
    3    1.9833
    4    1.9740
    5    1.4738
    6    0.5267
    7    0.0270
    8    0.0164


          Number of sigma calls:       23
                       o<<<<< (aa):             0.00
                       o<<<<< (bb):             0.00
                       o<<<<< (ab):             0.07
                       o<<<<< (total)           0.08
                       o<<<<< (aa) ff           0.00
                       o<<<<< (aa) gop          0.00
                       o<<<<< (aa) dot          0.00
                       o<<<<< (ab) str          0.00
                       o<<<<< (ab) gath         0.00
                       o<<<<< (ab) dotab        0.00
                       o<<<<< (ab) scat         0.00
                       o<<<<< (ab) sync         0.00
                       o<<<<< Density           0.00
                       o<<<<< Density one       0.00
                       o<<<<< Density two       0.00
                       o<<<<< Density ab        0.00
                       o<<<<< Spin adapt        0.31
                       o<<<<< Symm adapt        0.00

                       o<<<<< (ab) max sync:      0.00


       Final MCSCF results 
       ------------------- 

       Total MCSCF energy =    -75.975472186600
            Gradient norm =      9.9D-06

    CPU time for solution =      4.9s
   Wall time for solution =      8.9s



                        Analysis of MCSCF natural orbitals
                        ----------------------------------

 Vector    1  Occ=1.999992D+00  E=-2.062214D+01  Symmetry=a
              MO Center= -9.1D-02, -1.9D-01,  8.0D-14, r^2= 1.5D-02
   Bfn.  Coefficient  Atom+Function         Bfn.  Coefficient  Atom+Function  
  ----- ------------  ---------------      ----- ------------  ---------------
     1      0.557683  1 O  s                  2      0.483016  1 O  s          

 Vector    2  Occ=1.998650D+00  E=-1.314504D+00  Symmetry=a
              MO Center= -2.6D-01, -1.4D-01, -3.4D-11, r^2= 4.3D-01
   Bfn.  Coefficient  Atom+Function         Bfn.  Coefficient  Atom+Function  
  ----- ------------  ---------------      ----- ------------  ---------------
     6      0.600807  1 O  s                 10      0.507800  1 O  s          
     2     -0.176225  1 O  s          

 Vector    3  Occ=1.983327D+00  E=-6.783821D-01  Symmetry=a
              MO Center= -7.2D-02, -1.9D-01,  3.3D-11, r^2= 6.6D-01
   Bfn.  Coefficient  Atom+Function         Bfn.  Coefficient  Atom+Function  
  ----- ------------  ---------------      ----- ------------  ---------------
     9      0.450158  1 O  pz                13      0.406637  1 O  pz         
     5      0.298053  1 O  pz         

 Vector    4  Occ=1.974038D+00  E=-5.519155D-01  Symmetry=a
              MO Center=  3.3D-01, -3.4D-01,  1.9D-12, r^2= 5.9D-01
   Bfn.  Coefficient  Atom+Function         Bfn.  Coefficient  Atom+Function  
  ----- ------------  ---------------      ----- ------------  ---------------
     7      0.339361  1 O  px                31      0.296829  3 H  s          
     3      0.225336  1 O  px                11      0.207886  1 O  px         
    30      0.195887  3 H  s          

 Vector    5  Occ=1.473844D+00  E=-4.031232D-01  Symmetry=a
              MO Center= -7.0D-02,  8.4D-01,  2.2D-13, r^2= 1.9D+00
   Bfn.  Coefficient  Atom+Function         Bfn.  Coefficient  Atom+Function  
  ----- ------------  ---------------      ----- ------------  ---------------
    24      0.319749  2 H  s                  8      0.307349  1 O  py         
    12      0.260577  1 O  py                25      0.242491  2 H  s          
     4      0.196537  1 O  py                23      0.153150  2 H  s          

 Vector    6  Occ=5.267340D-01  E=-1.711604D-01  Symmetry=a
              MO Center= -8.0D-02,  9.9D-01,  3.3D-13, r^2= 1.9D+00
   Bfn.  Coefficient  Atom+Function         Bfn.  Coefficient  Atom+Function  
  ----- ------------  ---------------      ----- ------------  ---------------
    24      0.403873  2 H  s                  8     -0.358067  1 O  py         
    25      0.275257  2 H  s                 12     -0.257835  1 O  py         
     4     -0.226906  1 O  py                23      0.184510  2 H  s          

 Vector    7  Occ=2.701018D-02  E=-2.643298D-02  Symmetry=a
              MO Center=  5.2D-01, -4.0D-01,  2.9D-12, r^2= 6.1D-01
   Bfn.  Coefficient  Atom+Function         Bfn.  Coefficient  Atom+Function  
  ----- ------------  ---------------      ----- ------------  ---------------
    31      0.667447  3 H  s                  7     -0.491444  1 O  px         
     3     -0.387506  1 O  px                 6     -0.382738  1 O  s          
    30      0.338298  3 H  s                 10     -0.187372  1 O  s          
     8      0.172564  1 O  py         

 Vector    8  Occ=1.640380D-02  E=-1.375815D-02  Symmetry=a
              MO Center= -2.8D-02, -2.1D-01,  3.8D-11, r^2= 1.4D+00
   Bfn.  Coefficient  Atom+Function         Bfn.  Coefficient  Atom+Function  
  ----- ------------  ---------------      ----- ------------  ---------------
    13      0.694649  1 O  pz                 5     -0.508294  1 O  pz         
     9     -0.446038  1 O  pz                17      0.254443  1 O  pz         

 Vector    9  Occ=0.000000D+00  E= 7.355282D-02  Symmetry=a
              MO Center=  1.3D+00, -9.8D-01, -2.2D-11, r^2= 9.3D+00
   Bfn.  Coefficient  Atom+Function         Bfn.  Coefficient  Atom+Function  
  ----- ------------  ---------------      ----- ------------  ---------------
    33      1.878842  3 H  s                 14     -0.660748  1 O  s          
    32     -0.589014  3 H  s                 25     -0.263524  2 H  s          
    10      0.224139  1 O  s          

 Vector   10  Occ=0.000000D+00  E= 9.435438D-02  Symmetry=a
              MO Center= -2.1D-01,  2.7D+00,  9.1D-12, r^2= 1.1D+01
   Bfn.  Coefficient  Atom+Function         Bfn.  Coefficient  Atom+Function  
  ----- ------------  ---------------      ----- ------------  ---------------
    26      2.131470  2 H  s                 25     -1.078508  2 H  s          
    33     -1.004127  3 H  s                 16     -0.180386  1 O  py         

 Vector   11  Occ=0.000000D+00  E= 2.373430D-01  Symmetry=a
              MO Center= -8.0D-01, -2.4D-01, -1.6D-11, r^2= 4.9D+00
   Bfn.  Coefficient  Atom+Function         Bfn.  Coefficient  Atom+Function  
  ----- ------------  ---------------      ----- ------------  ---------------
    32     -1.796042  3 H  s                 15      1.690505  1 O  px         
    14      0.574072  1 O  s                 10      0.428878  1 O  s          
    11     -0.404491  1 O  px                33      0.379027  3 H  s          
    16      0.308552  1 O  py                25     -0.268109  2 H  s          
    12     -0.223973  1 O  py         

 Vector   12  Occ=0.000000D+00  E= 2.805978D-01  Symmetry=a
              MO Center= -3.7D-01, -4.6D-01,  1.2D-12, r^2= 6.0D+00
   Bfn.  Coefficient  Atom+Function         Bfn.  Coefficient  Atom+Function  
  ----- ------------  ---------------      ----- ------------  ---------------
    32      3.692435  3 H  s                 14     -3.230576  1 O  s          
    15     -1.951093  1 O  px                16      1.948570  1 O  py         
    25     -0.632838  2 H  s                 33      0.563940  3 H  s          
    12     -0.459464  1 O  py                31     -0.283954  3 H  s          
    26     -0.253170  2 H  s                 10      0.240407  1 O  s          

 Vector   13  Occ=0.000000D+00  E= 3.162377D-01  Symmetry=a
              MO Center=  4.3D-01,  3.9D-01, -4.5D-11, r^2= 5.2D+00
   Bfn.  Coefficient  Atom+Function         Bfn.  Coefficient  Atom+Function  
  ----- ------------  ---------------      ----- ------------  ---------------
    14      5.027232  1 O  s                 32     -3.590283  3 H  s          
    15      1.664283  1 O  px                10     -1.135948  1 O  s          
    25     -1.081328  2 H  s                 33     -0.490106  3 H  s          
    16      0.351089  1 O  py                12     -0.263242  1 O  py         
    31      0.225340  3 H  s          

 Vector   14  Occ=0.000000D+00  E= 4.637431D-01  Symmetry=a
              MO Center=  1.3D+00, -8.0D-01,  3.0D-12, r^2= 4.4D+00
   Bfn.  Coefficient  Atom+Function         Bfn.  Coefficient  Atom+Function  
  ----- ------------  ---------------      ----- ------------  ---------------
    32      4.558225  3 H  s                 14     -1.602356  1 O  s          
    31     -1.488084  3 H  s                 33     -1.376388  3 H  s          
    15     -0.758098  1 O  px                25      0.292713  2 H  s          
    10     -0.251959  1 O  s                 26      0.186093  2 H  s          
    24     -0.173660  2 H  s          

 Vector   15  Occ=0.000000D+00  E= 5.506038D-01  Symmetry=a
              MO Center= -1.1D-01,  2.2D+00,  2.7D-12, r^2= 4.4D+00
   Bfn.  Coefficient  Atom+Function         Bfn.  Coefficient  Atom+Function  
  ----- ------------  ---------------      ----- ------------  ---------------
    25      2.887995  2 H  s                 24     -1.672798  2 H  s          
    26     -1.430601  2 H  s                 32     -0.595406  3 H  s          
    33      0.473377  3 H  s                 12     -0.275798  1 O  py         
    31      0.256675  3 H  s                 10     -0.171235  1 O  s          

 Vector   16  Occ=0.000000D+00  E= 6.053046D-01  Symmetry=a
              MO Center= -8.0D-02, -1.9D-01,  5.4D-11, r^2= 5.4D+00
   Bfn.  Coefficient  Atom+Function         Bfn.  Coefficient  Atom+Function  
  ----- ------------  ---------------      ----- ------------  ---------------
    17     -1.449000  1 O  pz                13      1.384817  1 O  pz         
     9     -0.418363  1 O  pz         

 Vector   17  Occ=0.000000D+00  E= 1.080207D+00  Symmetry=a
              MO Center= -4.4D-01, -3.1D-02,  3.5D-12, r^2= 2.3D+00
   Bfn.  Coefficient  Atom+Function         Bfn.  Coefficient  Atom+Function  
  ----- ------------  ---------------      ----- ------------  ---------------
    11      2.417423  1 O  px                32      2.280591  3 H  s          
    31     -2.174336  3 H  s                 14     -1.936613  1 O  s          
    15     -1.638156  1 O  px                10      1.440533  1 O  s          
    12     -0.780857  1 O  py                16      0.615677  1 O  py         
     7     -0.493918  1 O  px                33      0.266934  3 H  s          

 Vector   18  Occ=0.000000D+00  E= 1.201339D+00  Symmetry=a
              MO Center= -1.0D-01,  1.4D-01,  5.1D-13, r^2= 2.5D+00
   Bfn.  Coefficient  Atom+Function         Bfn.  Coefficient  Atom+Function  
  ----- ------------  ---------------      ----- ------------  ---------------
    12      1.573105  1 O  py                16     -0.937991  1 O  py         
     8     -0.777995  1 O  py                14     -0.387165  1 O  s          
    11      0.374898  1 O  px                28     -0.310084  2 H  py         
    25      0.240678  2 H  s                 26      0.220593  2 H  s          
     7     -0.218950  1 O  px                15     -0.208720  1 O  px         


 Wrote Lagrangian and 1- and 2-particle density matrices to ./H2O.mcpdm


     Multipole analysis of the density
     ---------------------------------

     L   x y z        total        nuclear
     -   - - -        -----        -------
     0   0 0 0     -0.000000     10.000000

     1   1 0 0      0.632164     -0.000000
     1   0 1 0     -0.092630      0.000000
     1   0 0 1     -0.000000      0.000000

     2   2 0 0     -4.601369      2.679864
     2   1 1 0     -0.634860     -1.723020
     2   1 0 1      0.000000      0.000000
     2   0 2 0     -4.061094     16.400202
     2   0 1 1      0.000000      0.000000
     2   0 0 2     -6.168661      0.000000


  Mulliken analysis of the total density
  --------------------------------------

    Atom       Charge   Shell Charges
 -----------   ------   -------------------------------------------------------
    1 O    8     8.26   1.08  0.91  0.90  1.06  1.92  0.86  1.40 -0.02  0.14  0.01
    2 H    1     0.96   0.17  0.47  0.32  0.01  0.00
    3 H    1     0.78   0.26  0.42  0.02  0.01  0.06

    Mulliken analysis of the active space density
    ---------------------------------------------

    Atom       Charge   Shell Charges
 -----------   ------   -------------------------------------------------------
    1 O    8     8.26   1.08  0.91  0.90  1.06  1.92  0.86  1.40 -0.02  0.14  0.01
    2 H    1     0.96   0.17  0.47  0.32  0.01  0.00
    3 H    1     0.78   0.26  0.42  0.02  0.01  0.06

 Parallel integral file used       3 records with       0 large values


 Task  times  cpu:        4.9s     wall:        8.9s


                                NWChem Input Module
                                -------------------


                                 NWChem SCF Module
                                 -----------------


                                        H2O



  ao basis        = "ao basis"
  functions       =    36
  atoms           =     3
  closed shells   =     5
  open shells     =     0
  charge          =   0.00
  wavefunction    = RHF 
  input vectors   = ./h2o.mos
  output vectors  = ./h2o-trash.mos
  use symmetry    = F
  symmetry adapt  = F


 Summary of "ao basis" -> "ao basis" (spherical)
 ------------------------------------------------------------------------------
       Tag                 Description            Shells   Functions and Types
 ---------------- ------------------------------  ------  ---------------------
 O                         6-311++G**               10       22   5s4p1d
 H                         6-311++G**                5        7   4s1p



 Forming initial guess at       8.9s


 Loading old vectors from job with title :

H2O


 Starting SCF solution at       8.9s



 ----------------------------------------------
         Quadratically convergent ROHF

 Convergence threshold     :          1.000E-04
 Maximum no. of iterations :           30
 Final Fock-matrix accuracy:          1.000E-07
 ----------------------------------------------


 Integral file          = ./H2O.aoints.0
 Record size in doubles =  65536        No. of integs per rec  =  43688
 Max. records in memory =     10        Max. records in file   = 232492
 No. of bits per label  =      8        No. of bits per value  =     64


 #quartets = 2.163D+04 #integrals = 9.752D+04 #direct =  0.0% #cached =100.0%



       Final RHF  results 
       ------------------ 

         Total SCF energy =    -75.768139707636
      One-electron energy =   -117.383323878293
      Two-electron energy =     35.150563170111
 Nuclear repulsion energy =      6.464621000545

        Time for solution =      0.0s


             Final eigenvalues
             -----------------

              1      
    1  -20.6221
    2   -1.3145
    3   -0.6784
    4   -0.5519
    5   -0.4031
    6   -0.1712
    7   -0.0264
    8   -0.0138
    9    0.0736
   10    0.0944
   11    0.2373
   12    0.2806
   13    0.3162
   14    0.4637
   15    0.5506

                       ROHF Final Molecular Orbital Analysis
                       -------------------------------------

 Vector    2  Occ=2.000000D+00  E=-1.314504D+00
              MO Center= -2.6D-01, -1.4D-01, -3.4D-11, r^2= 4.3D-01
   Bfn.  Coefficient  Atom+Function         Bfn.  Coefficient  Atom+Function  
  ----- ------------  ---------------      ----- ------------  ---------------
     6      0.600807  1 O  s                 10      0.507800  1 O  s          
     2     -0.176225  1 O  s          

 Vector    3  Occ=2.000000D+00  E=-6.783821D-01
              MO Center= -7.2D-02, -1.9D-01,  3.3D-11, r^2= 6.6D-01
   Bfn.  Coefficient  Atom+Function         Bfn.  Coefficient  Atom+Function  
  ----- ------------  ---------------      ----- ------------  ---------------
     9      0.450158  1 O  pz                13      0.406637  1 O  pz         
     5      0.298053  1 O  pz         

 Vector    4  Occ=2.000000D+00  E=-5.519155D-01
              MO Center=  3.3D-01, -3.4D-01,  1.9D-12, r^2= 5.9D-01
   Bfn.  Coefficient  Atom+Function         Bfn.  Coefficient  Atom+Function  
  ----- ------------  ---------------      ----- ------------  ---------------
     7      0.339361  1 O  px                31      0.296829  3 H  s          
     3      0.225336  1 O  px                11      0.207886  1 O  px         
    30      0.195887  3 H  s          

 Vector    5  Occ=2.000000D+00  E=-4.031232D-01
              MO Center= -7.0D-02,  8.4D-01,  2.2D-13, r^2= 1.9D+00
   Bfn.  Coefficient  Atom+Function         Bfn.  Coefficient  Atom+Function  
  ----- ------------  ---------------      ----- ------------  ---------------
    24      0.319749  2 H  s                  8      0.307349  1 O  py         
    12      0.260577  1 O  py                25      0.242491  2 H  s          
     4      0.196537  1 O  py                23      0.153150  2 H  s          

 Vector    6  Occ=0.000000D+00  E=-1.711604D-01
              MO Center= -8.0D-02,  9.9D-01,  3.3D-13, r^2= 1.9D+00
   Bfn.  Coefficient  Atom+Function         Bfn.  Coefficient  Atom+Function  
  ----- ------------  ---------------      ----- ------------  ---------------
    24      0.403873  2 H  s                  8     -0.358067  1 O  py         
    25      0.275257  2 H  s                 12     -0.257835  1 O  py         
     4     -0.226906  1 O  py                23      0.184510  2 H  s          

 Vector    7  Occ=0.000000D+00  E=-2.643298D-02
              MO Center=  5.2D-01, -4.0D-01,  2.9D-12, r^2= 6.1D-01
   Bfn.  Coefficient  Atom+Function         Bfn.  Coefficient  Atom+Function  
  ----- ------------  ---------------      ----- ------------  ---------------
    31      0.667447  3 H  s                  7     -0.491444  1 O  px         
     3     -0.387506  1 O  px                 6     -0.382738  1 O  s          
    30      0.338298  3 H  s                 10     -0.187372  1 O  s          
     8      0.172564  1 O  py         

 Vector    8  Occ=0.000000D+00  E=-1.375815D-02
              MO Center= -2.8D-02, -2.1D-01,  3.8D-11, r^2= 1.4D+00
   Bfn.  Coefficient  Atom+Function         Bfn.  Coefficient  Atom+Function  
  ----- ------------  ---------------      ----- ------------  ---------------
    13      0.694649  1 O  pz                 5     -0.508294  1 O  pz         
     9     -0.446038  1 O  pz                17      0.254443  1 O  pz         

 Vector    9  Occ=0.000000D+00  E= 7.355282D-02
              MO Center=  1.3D+00, -9.8D-01, -2.2D-11, r^2= 9.3D+00
   Bfn.  Coefficient  Atom+Function         Bfn.  Coefficient  Atom+Function  
  ----- ------------  ---------------      ----- ------------  ---------------
    33      1.878842  3 H  s                 14     -0.660748  1 O  s          
    32     -0.589014  3 H  s                 25     -0.263524  2 H  s          
    10      0.224139  1 O  s          

 Vector   10  Occ=0.000000D+00  E= 9.435438D-02
              MO Center= -2.1D-01,  2.7D+00,  9.1D-12, r^2= 1.1D+01
   Bfn.  Coefficient  Atom+Function         Bfn.  Coefficient  Atom+Function  
  ----- ------------  ---------------      ----- ------------  ---------------
    26      2.131470  2 H  s                 25     -1.078508  2 H  s          
    33     -1.004127  3 H  s                 16     -0.180386  1 O  py         

 Vector   11  Occ=0.000000D+00  E= 2.373430D-01
              MO Center= -8.0D-01, -2.4D-01, -1.6D-11, r^2= 4.9D+00
   Bfn.  Coefficient  Atom+Function         Bfn.  Coefficient  Atom+Function  
  ----- ------------  ---------------      ----- ------------  ---------------
    32     -1.796042  3 H  s                 15      1.690505  1 O  px         
    14      0.574072  1 O  s                 10      0.428878  1 O  s          
    11     -0.404491  1 O  px                33      0.379027  3 H  s          
    16      0.308552  1 O  py                25     -0.268109  2 H  s          
    12     -0.223973  1 O  py         

 Vector   12  Occ=0.000000D+00  E= 2.805978D-01
              MO Center= -3.7D-01, -4.6D-01,  1.2D-12, r^2= 6.0D+00
   Bfn.  Coefficient  Atom+Function         Bfn.  Coefficient  Atom+Function  
  ----- ------------  ---------------      ----- ------------  ---------------
    32      3.692435  3 H  s                 14     -3.230576  1 O  s          
    15     -1.951093  1 O  px                16      1.948570  1 O  py         
    25     -0.632838  2 H  s                 33      0.563940  3 H  s          
    12     -0.459464  1 O  py                31     -0.283954  3 H  s          
    26     -0.253170  2 H  s                 10      0.240407  1 O  s          

 Vector   13  Occ=0.000000D+00  E= 3.162377D-01
              MO Center=  4.3D-01,  3.9D-01, -4.5D-11, r^2= 5.2D+00
   Bfn.  Coefficient  Atom+Function         Bfn.  Coefficient  Atom+Function  
  ----- ------------  ---------------      ----- ------------  ---------------
    14      5.027232  1 O  s                 32     -3.590283  3 H  s          
    15      1.664283  1 O  px                10     -1.135948  1 O  s          
    25     -1.081328  2 H  s                 33     -0.490106  3 H  s          
    16      0.351089  1 O  py                12     -0.263242  1 O  py         
    31      0.225340  3 H  s          

 Vector   14  Occ=0.000000D+00  E= 4.637431D-01
              MO Center=  1.3D+00, -8.0D-01,  3.0D-12, r^2= 4.4D+00
   Bfn.  Coefficient  Atom+Function         Bfn.  Coefficient  Atom+Function  
  ----- ------------  ---------------      ----- ------------  ---------------
    32      4.558225  3 H  s                 14     -1.602356  1 O  s          
    31     -1.488084  3 H  s                 33     -1.376388  3 H  s          
    15     -0.758098  1 O  px                25      0.292713  2 H  s          
    10     -0.251959  1 O  s                 26      0.186093  2 H  s          
    24     -0.173660  2 H  s          

 Vector   15  Occ=0.000000D+00  E= 5.506038D-01
              MO Center= -1.1D-01,  2.2D+00,  2.7D-12, r^2= 4.4D+00
   Bfn.  Coefficient  Atom+Function         Bfn.  Coefficient  Atom+Function  
  ----- ------------  ---------------      ----- ------------  ---------------
    25      2.887995  2 H  s                 24     -1.672798  2 H  s          
    26     -1.430601  2 H  s                 32     -0.595406  3 H  s          
    33      0.473377  3 H  s                 12     -0.275798  1 O  py         
    31      0.256675  3 H  s                 10     -0.171235  1 O  s          


 center of mass
 --------------
 x =  -0.07599894 y =  -0.15411204 z =   0.00000000

 moments of inertia (a.u.)
 ------------------
          17.072016285873           1.468488720097           0.000000000000
           1.468488720097           2.833002082974           0.000000000000
           0.000000000000           0.000000000000          19.905018368847

  Mulliken analysis of the total density
  --------------------------------------

    Atom       Charge   Shell Charges
 -----------   ------   -------------------------------------------------------
    1 O    8     8.30   1.08  0.91  0.88  1.06  1.92  0.86  1.45 -0.02  0.15  0.01
    2 H    1     0.93   0.15  0.44  0.32  0.01  0.00
    3 H    1     0.77   0.26  0.42  0.02  0.01  0.07

       Multipole analysis of the density wrt the origin
       ------------------------------------------------

     L   x y z        total         open         nuclear
     -   - - -        -----         ----         -------
     0   0 0 0     -0.000000      0.000000     10.000000

     1   1 0 0      0.635082      0.000000     -0.000000
     1   0 1 0      0.057065      0.000000      0.000000
     1   0 0 1     -0.000000      0.000000      0.000000

     2   2 0 0     -4.644275      0.000000      2.679864
     2   1 1 0     -0.735106      0.000000     -1.723020
     2   1 0 1      0.000000      0.000000      0.000000
     2   0 2 0     -3.286969      0.000000     16.400202
     2   0 1 1      0.000000      0.000000      0.000000
     2   0 0 2     -6.201777      0.000000      0.000000


 Parallel integral file used       3 records with       0 large values

                   NWChem Extensible Many-Electron Theory Module
                   ---------------------------------------------

              ======================================================
                   This portion of the program was automatically
                  generated by a Tensor Contraction Engine (TCE).
                  The development of this portion of the program
                 and TCE was supported by US Department of Energy,
                Office of Science, Office of Basic Energy Science.
                      TCE is a product of Battelle and PNNL.
              Please cite: S.Hirata, J.Phys.Chem.A 107, 9887 (2003).
              ======================================================

                                        H2O


            General Information
            -------------------
      Number of processors :     1
         Wavefunction type : Restricted Hartree-Fock
          No. of electrons :    10
           Alpha electrons :     5
            Beta electrons :     5
           No. of orbitals :    72
            Alpha orbitals :    36
             Beta orbitals :    36
        Alpha frozen cores :     0
         Beta frozen cores :     0
     Alpha frozen virtuals :     0
      Beta frozen virtuals :     0
         Spin multiplicity : singlet 
    Number of AO functions :    36
       Number of AO shells :    20
        Use of symmetry is : off
      Symmetry adaption is : off
         Schwarz screening : 0.10D-09

          Correlation Information
          -----------------------
          Calculation type : Coupled-cluster singles & doubles                           
   Perturbative correction : none                                                        
            Max iterations :      300
        Residual threshold : 0.10D-06
     T(0) DIIS level shift : 0.00D+00
     L(0) DIIS level shift : 0.00D+00
     T(1) DIIS level shift : 0.00D+00
     L(1) DIIS level shift : 0.00D+00
     T(R) DIIS level shift : 0.00D+00
     T(I) DIIS level shift : 0.00D+00
   CC-T/L Amplitude update :  5-th order DIIS
                I/O scheme : Global Array Library
        L-threshold :  0.10D-06
        EOM-threshold :  0.10D-06
 no EOMCCSD initial starts read in
 TCE RESTART OPTIONS
 READ_INT:   F
 WRITE_INT:  F
 READ_TA:    F
 WRITE_TA:   F
 READ_XA:    F
 WRITE_XA:   F
 READ_IN3:   F
 WRITE_IN3:  F
 SLICE:      F
 D4D5:       F
 quantumc:   F
 qrotation:  F
 pwtce:      F
 qducc:      T
 nacto:                         0
 nrotv:                         0
 nrot:                          0

            Memory Information
            ------------------
          Available GA space size is    1610611440 doubles
          Available MA space size is    1610610740 doubles

 Maximum block size        32 doubles

 tile_dim =     31

 Block   Spin    Irrep     Size     Offset   Alpha
 -------------------------------------------------
   1    alpha     a      5 doubles       0       1
   2    beta      a      5 doubles       5       1
   3    alpha     a     31 doubles      10       3
   4    beta      a     31 doubles      41       3

 Global array virtual files algorithm will be used

 Parallel file system coherency ......... OK

 Integral file          = ./H2O.aoints.0
 Record size in doubles =  65536        No. of integs per rec  =  43688
 Max. records in memory =     10        Max. records in file   = 232492
 No. of bits per label  =      8        No. of bits per value  =     64


 #quartets = 2.208D+04 #integrals = 9.987D+04 #direct =  0.0% #cached =100.0%


 Fock matrix recomputed
 1-e file size   =             1296
 1-e file name   = ./H2O.f1
 Cpu & wall time / sec            0.0            0.0
 4-electron integrals stored in orbital form

 v2    file size   =          1125026
 4-index algorithm nr.  13 is used
 imaxsize =       30
 imaxsize ichop =        0
 Cpu & wall time / sec            0.2            0.2
 T1-number-of-tasks                    1

 t1 file size   =              155
 t1 file name   = ./H2O.t1
 t1 file handle =       -998
 T2-number-of-boxes                    2

 t2 file size   =            48050
 t2 file name   = ./H2O.t2
 t2 file handle =       -996
CCSD iterations
 ---------------------------------------------------------
 Iter          Residuum       Correlation     Cpu    Wall 
 ---------------------------------------------------------
NEW TASK SCHEDULING
CCSD_T1_NTS --- OK
CCSD_T2_NTS --- OK
    1   1.0235504864512  -0.5069891074658     0.0     0.0
    2   1.7968192716569   0.0402156875989     0.0     0.0
    3   3.2874065380798  -0.9294665700856     0.0     0.0
    4   6.1103284961837   0.8222864192446     0.0     0.0
    5  10.0231230910034  -2.3502719835746     0.0     0.0
 MICROCYCLE DIIS UPDATE:                    5                    5
    6   0.0924911317258  -0.3233821931823     0.0     0.0
    7   0.1143336464853  -0.3508020112889     0.0     0.0
    8   0.2194609458308  -0.3040491478112     0.0     0.0
    9   0.4343920963858  -0.3496503025534     0.0     0.0
   10   0.8729056741333  -0.0972137594043     0.0     0.0
 MICROCYCLE DIIS UPDATE:                   10                    5
   11   0.0112281379157  -0.3405938187468     0.0     0.0
   12   0.0107191241533  -0.3405102826316     0.0     0.0
   13   0.0211592717358  -0.3410823400893     0.0     0.0
   14   0.0452967963714  -0.3395824871458     0.0     0.0
   15   0.0997194627495  -0.3405695895142     0.0     0.0
 MICROCYCLE DIIS UPDATE:                   15                    5
   16   0.0010026200386  -0.3410689456812     0.0     0.0
   17   0.0011881601060  -0.3410818650534     0.0     0.0
   18   0.0028279066781  -0.3410780445047     0.0     0.0
   19   0.0070796592205  -0.3411147598867     0.0     0.0
   20   0.0179417281391  -0.3411014750288     0.0     0.0
 MICROCYCLE DIIS UPDATE:                   20                    5
   21   0.0000984972413  -0.3411083498507     0.0     0.0
   22   0.0000804175566  -0.3411051385523     0.0     0.0
   23   0.0001560802524  -0.3411038189310     0.0     0.0
   24   0.0003500673779  -0.3411082147739     0.0     0.0
   25   0.0008283011795  -0.3410968252937     0.0     0.0
 MICROCYCLE DIIS UPDATE:                   25                    5
   26   0.0000145549570  -0.3411047907831     0.0     0.0
   27   0.0000167301119  -0.3411047658831     0.0     0.0
   28   0.0000377241454  -0.3411049527365     0.0     0.0
   29   0.0000930323147  -0.3411045081414     0.0     0.0
   30   0.0002336618285  -0.3411061217469     0.0     0.0
 MICROCYCLE DIIS UPDATE:                   30                    5
   31   0.0000021271615  -0.3411049263844     0.0     0.0
   32   0.0000016857753  -0.3411049048135     0.0     0.0
   33   0.0000030284735  -0.3411048323825     0.0     0.0
   34   0.0000069722284  -0.3411049892985     0.0     0.0
   35   0.0000170076500  -0.3411046613364     0.0     0.0
 MICROCYCLE DIIS UPDATE:                   35                    5
   36   0.0000004120174  -0.3411048834620     0.0     0.0
   37   0.0000004710787  -0.3411048768493     0.0     0.0
   38   0.0000009963766  -0.3411048996705     0.0     0.0
   39   0.0000024012088  -0.3411048532154     0.0     0.0
   40   0.0000059762918  -0.3411049649503     0.0     0.0
 MICROCYCLE DIIS UPDATE:                   40                    5
   41   0.0000000901053  -0.3411048894546     0.0     0.0
 -----------------------------------------------------------------
 Iterations converged
 CCSD correlation energy / hartree =        -0.341104889454648
 CCSD total energy / hartree       =       -76.109244597090637

 Singles contributions
     6a   (alpha) ---     5a   (alpha)       -0.0410632513

 Doubles contributions
     7a   (alpha)     8a   (alpha) ---     3a   (alpha)     4a   (alpha)        0.0270388464
     7a   (alpha)     8a   (alpha) ---     4a   (alpha)     3a   (alpha)       -0.0270388464
     8a   (alpha)     7a   (alpha) ---     3a   (alpha)     4a   (alpha)       -0.0270388464
     8a   (alpha)     7a   (alpha) ---     4a   (alpha)     3a   (alpha)        0.0270388464
     6a   (alpha)     6a   (beta ) ---     5a   (alpha)     5a   (beta )       -0.5067645928
     6a   (alpha)     7a   (beta ) ---     4a   (alpha)     5a   (beta )       -0.0204191695
     6a   (alpha)     7a   (beta ) ---     5a   (alpha)     4a   (beta )       -0.0262838250
     6a   (alpha)     8a   (beta ) ---     5a   (alpha)     3a   (beta )       -0.0297922494
     6a   (alpha)    29a   (beta ) ---     2a   (alpha)     5a   (beta )       -0.0200929312
     7a   (alpha)     6a   (beta ) ---     4a   (alpha)     5a   (beta )       -0.0262838250
     7a   (alpha)     6a   (beta ) ---     5a   (alpha)     4a   (beta )       -0.0204191695
     7a   (alpha)     7a   (beta ) ---     4a   (alpha)     4a   (beta )       -0.0865112424
     7a   (alpha)     8a   (beta ) ---     4a   (alpha)     3a   (beta )       -0.0375607268
     8a   (alpha)     6a   (beta ) ---     3a   (alpha)     5a   (beta )       -0.0297922494
     8a   (alpha)     7a   (beta ) ---     3a   (alpha)     4a   (beta )       -0.0375607268
     8a   (alpha)     8a   (beta ) ---     3a   (alpha)     3a   (beta )       -0.0558617301
    29a   (alpha)     6a   (beta ) ---     5a   (alpha)     2a   (beta )       -0.0200929312
 Ground state specification:
 exp(T)|Ref>~(1+T)|Ref>
 ------- a(p)+/a(q) strings ----------

 singles norm

 doubles norm

 Reference string
  0.89200055646417953      :(1a)+ (2a)+ (3a)+ (4a)+ (5a)+ (1b)+ (2b)+ (3b)+ (4b)+ (5b)+ |0>

 Singles strings

 Doubles strings
 -0.45203429877343826      :(6a)+ (6b)+ (5b)  (5a)  (1a)+ (2a)+ (3a)+ (4a)+ (5a)+ (1b)+ (2b)+ (3b)+ (4b)+ (5b)+ |0>
 -------------------------------------
 enrep_tce =    6.4646210005454652     
  EHF(total)         =       -75.76813971
  Shift (HFtot-HFA)  =         0.00000000
 ALL OCCUPIED ORBITALS ARE ACTIVE IN DUCC --> NO SHIFT
 Number of active orbitals                    8
 Number of active alpha electrons                    5
 Number of active beta electrons                    5
  nos                    10
  nvs                    62
 noas                     5
 nobs                     5
 nvas                    31
 nvbs                    31
 nactv                     3
 DUCC MODEL =                     6
 NONHF =  T
 F-T1 correlation    =   -2.6770056140478921E-003
 V-T1-T1 correlation =    2.7350656282692408E-004
 V-T2 correlation    =  -0.33870139040241076     
 Total correlation   =  -0.34110488945363171     
 F-T1(Ext) correlation         =   -3.8350989920369098E-004
 V-T1(Ext)-T1(Ext) correlation =    1.5089580548618504E-005
 V-T2(Ext) correlation         =  -0.15560001370823306     
 Total Ext correlation         =  -0.15596843402688815     
1-BODY TIME =   17.821 SECONDS.
  HHHH TIME =   18.477 SECONDS.
  PPPP TIME =    0.108 SECONDS.
  HHHP TIME =    3.434 SECONDS.
  PPPH TIME =    0.317 SECONDS.
  HPHP TIME =    2.075 SECONDS.
  HHPP TIME =    1.818 SECONDS.
 ONE-BODY UNITARY CHECK
 TWO-BODY UNITARY CHECK
                    1                    1                    1                    2   6.8886973998118237E-012
                    1                    1                    1                    5  -8.8576599011748641E-011
                    1                    1                    2                    1  -6.8887003386258248E-012
                    1                    1                    2                    4  -1.2097863551705062E-010
                    1                    1                    2                    5   2.6772428255700322E-010
                    1                    1                    4                    2   1.2097863553823968E-010
                    1                    1                    4                    5  -5.5502684788229473E-011
                    1                    1                    5                    1   8.8576599028639152E-011
                    1                    1                    5                    2  -2.6772428255864062E-010
                    1                    1                    5                    4   5.5502684787433415E-011
                    1                    2                    1                    1  -6.8886973998118237E-012
                    1                    2                    1                    4  -1.4266761817066653E-010
                    1                    2                    1                    5   2.9907401555284707E-010
                    1                    2                    2                    1   1.0920375714817965E-010
                    1                    2                    2                    2  -5.4711059727377273E-010
                    1                    2                    2                    4   2.1594218618109506E-009
                    1                    2                    2                    5  -3.0288443599989917E-009
                    1                    2                    3                    3  -1.2783084762648595E-009
                    1                    2                    4                    1  -1.0351680537062924E-010
                    1                    2                    4                    2   2.3895240300331189E-010
                    1                    2                    4                    4  -1.1613267948794420E-009
                    1                    2                    4                    5   9.6516361889438171E-010
                    1                    2                    5                    1  -2.9504606396946187E-010
                    1                    2                    5                    2   3.1091489528355803E-009
                    1                    2                    5                    4  -1.1694380709029867E-009
                    1                    2                    5                    5   9.9452902100161608E-012
                    1                    3                    2                    3  -3.1606844468068385E-009
                    1                    3                    3                    1   1.7692998177665231E-009
                    1                    3                    3                    2  -9.2247308125514849E-009
                    1                    3                    3                    4   1.3179723892114970E-009
                    1                    3                    3                    5  -3.2343791642359954E-009
                    1                    3                    4                    3   2.1614139020242895E-009
                    1                    3                    5                    3   4.5963041359065038E-009
                    1                    4                    1                    2   1.4266761817066653E-010
                    1                    4                    1                    5   2.3307796664928659E-012
                    1                    4                    2                    1  -2.0100398082090187E-010
                    1                    4                    2                    2   5.4114343616189486E-010
                    1                    4                    2                    4  -9.8724817557127587E-010
                    1                    4                    2                    5   5.4868625799526366E-010
                    1                    4                    3                    3  -1.4277078134778170E-010
                    1                    4                    4                    1   8.8981810808519413E-010
                    1                    4                    4                    2  -5.8123065804771556E-009
                    1                    4                    4                    4   1.9201547787706024E-009
                    1                    4                    4                    5  -3.8292287277228582E-009
                    1                    4                    5                    1  -2.8816586269964084E-011
                    1                    4                    5                    2  -6.3382425680548818E-010
                    1                    4                    5                    4   4.5885252745840599E-009
                    1                    4                    5                    5   6.9289388443347970E-011
                    1                    5                    1                    1   8.8576599011748641E-011
                    1                    5                    1                    2  -2.9907401555284707E-010
                    1                    5                    1                    4  -2.3307796664928659E-012
                    1                    5                    2                    1  -5.0111987476286757E-010
                    1                    5                    2                    2   1.6288712621014408E-009
                    1                    5                    2                    4  -2.1567554534841771E-010
                    1                    5                    2                    5  -2.7240128902539240E-010
                    1                    5                    3                    3   4.3318809919814853E-010
                    1                    5                    4                    1  -6.7607601808572504E-011
                    1                    5                    4                    2   1.6307447840008260E-010
                    1                    5                    4                    4   1.6837744721551413E-010
                    1                    5                    4                    5   6.2690596290548850E-010
                    1                    5                    5                    1  -9.8602381815027229E-010
                    1                    5                    5                    2   3.2612802354503589E-009
                    1                    5                    5                    4  -1.3919561328221142E-009
                    1                    5                    5                    5  -1.1072663361898499E-010
                    1                    6                    1                    7  -1.6298745686427196E-010
                    1                    6                    1                    9  -1.2921824721345843E-010
                    1                    6                    1                   10  -1.4953749349899681E-010
                    1                    6                    2                    6   1.4440282303240792E-010
                    1                    6                    2                    7   1.2209193725465362E-009
                    1                    6                    2                    9   1.6775584567307877E-009
                    1                    6                    2                   10   5.8818378032704510E-010
                    1                    6                    3                    8  -6.2392007428579976E-009
                    1                    6                    4                    6  -9.0997764878864018E-012
                    1                    6                    4                    7  -4.4192961616562609E-010
                    1                    6                    4                    9  -2.4847352855794647E-009
                    1                    6                    4                   10   1.7692653285906849E-010
                    1                    6                    5                    6   2.1466296448724442E-010
                    1                    6                    5                    7  -5.3656891755259062E-010
                    1                    6                    5                    9   8.7356129843891087E-011
                    1                    6                    5                   10   1.6196099843213130E-009
                    1                    6                    6                    2   1.6987602990958806E-010
                    1                    6                    6                    4   1.2962597661925201E-010
                    1                    6                    6                    5   6.0960889114447525E-011
                    1                    6                    7                    1  -1.5129139607772402E-010
                    1                    6                    7                    2  -1.2209193725465362E-009
                    1                    6                    7                    4  -1.7985370948624124E-009
                    1                    6                    7                    5  -3.2045949444406419E-010
                    1                    6                    8                    3   6.2392007428579976E-009
                    1                    6                    9                    1   8.6920470820928131E-012
                    1                    6                    9                    2   5.6290825386356991E-010
                    1                    6                    9                    4   2.4847352855794647E-009
                    1                    6                    9                    5  -2.3242921712188051E-010
                    1                    6                   10                    1  -1.2608636010269514E-010
                    1                    6                   10                    2   2.6884463166960970E-010
                    1                    6                   10                    4  -3.1853444984767873E-011
                    1                    6                   10                    5  -1.6196099843213130E-009
                    1                    7                    1                    6   1.6298745686427196E-010
                    1                    7                    1                    9  -6.2294064871737387E-011
                    1                    7                    1                   10  -1.6073602865374070E-010
                    1                    7                    2                    6   2.5044061269241524E-010
                    1                    7                    2                    7   4.6577702285388600E-010
                    1                    7                    2                    9   1.2791277585744165E-009
                    1                    7                    2                   10   1.0702543002771674E-008
                    1                    7                    3                    8   1.5594161136001095E-009
                    1                    7                    4                    6  -2.2631350526242100E-010
                    1                    7                    4                    7   1.1113837801446369E-010
                    1                    7                    4                    9   1.2461322945744868E-010
                    1                    7                    4                   10  -4.6078266256830563E-010
                    1                    7                    5                    6  -6.4577757464406860E-010
                    1                    7                    5                    7   1.4797869069319534E-008
                    1                    7                    5                    9  -1.5558346762615735E-009
                    1                    7                    5                   10  -1.4280253264609133E-009
                    1                    7                    6                    1  -1.6987611317631490E-010
                    1                    7                    6                    4  -8.0373637433017731E-011
                    1                    7                    6                    5   4.5980995790409485E-010
                    1                    7                    7                    1  -1.4123724412229421E-010
                    1                    7                    7                    2  -1.0128876782450336E-009
                    1                    7                    7                    4   8.8029417436019664E-010
                    1                    7                    7                    5  -1.3731387355398091E-008
                    1                    7                    8                    3  -2.8377245900323977E-009
                    1                    7                    9                    1   1.2279677231649688E-010
                    1                    7                    9                    2   1.2781396687561175E-010
                    1                    7                    9                    4  -1.2859400280729183E-009
[...]
    7    7    4    1        0.0081912783
    7    7    4    2        0.0720096497
    7    7    4    4        0.7515990491
    7    7    4    5        0.0045804238
    7    7    4    6        0.0059852327
    7    7    4    7       -0.0865151174
    7    8    4    3        0.0269065072
    7    8    4    8       -0.0041128752
    7    1    5    1        0.0001619605
    7    1    5    2       -0.0010532913
    7    1    5    4        0.0005962153
    7    1    5    5        0.0024797105
    7    1    5    6       -0.0013488216
    7    1    5    7       -0.0005180669
    7    2    5    1       -0.0002912982
    7    2    5    2       -0.0003386966
    7    2    5    4        0.0015582142
    7    2    5    5       -0.0075731305
    7    2    5    6        0.0110619783
    7    2    5    7       -0.0016166051
    7    3    5    3        0.0005861050
    7    3    5    8       -0.0001077271
    7    4    5    1       -0.0012382982
    7    4    5    2        0.0060332959
    7    4    5    4       -0.0023488548
    7    4    5    5       -0.1003068288
    7    4    5    6        0.0867076850
    7    4    5    7        0.0018959753
    7    5    5    1       -0.0041588627
    7    5    5    2       -0.0117876047
    7    5    5    4       -0.0108075728
    7    5    5    5       -0.0024338184
    7    5    5    6       -0.0011901850
    7    5    5    7        0.0143296157
    7    6    5    1        0.0044905574
    7    6    5    2        0.0145934086
    7    6    5    4        0.0122342604
    7    6    5    5       -0.0020273203
    7    6    5    6       -0.0009400691
    7    6    5    7       -0.0141761200
    7    7    5    1        0.0019048838
    7    7    5    2       -0.0130504092
    7    7    5    4        0.0045804238
    7    7    5    5        0.4342015714
    7    7    5    6       -0.2164897884
    7    7    5    7       -0.0004771034
    7    8    5    3       -0.0000073479
    7    8    5    8        0.0005628552
    7    1    6    1        0.0007743686
    7    1    6    2       -0.0016055578
    7    1    6    4        0.0010444651
    7    1    6    5       -0.0013289112
    7    1    6    6        0.0026145668
    7    1    6    7       -0.0016937931
    7    2    6    1       -0.0009581336
    7    2    6    2       -0.0043517058
    7    2    6    4        0.0028100772
    7    2    6    5        0.0113102183
    7    2    6    6       -0.0102623740
    7    2    6    7       -0.0033014046
    7    3    6    3        0.0012524581
    7    3    6    8       -0.0005748398
    7    4    6    1       -0.0011022730
    7    4    6    2        0.0099639481
    7    4    6    4        0.0017584628
    7    4    6    5        0.0861188823
    7    4    6    6       -0.1111223924
    7    4    6    7        0.0042090497
    7    5    6    1        0.0046063015
    7    5    6    2        0.0123658078
    7    5    6    4        0.0130697249
    7    5    6    5       -0.0009981008
    7    5    6    6       -0.0036934453
    7    5    6    7       -0.0141761200
    7    6    6    1       -0.0051141799
    7    6    6    2       -0.0140918849
    7    6    6    4       -0.0137758603
    7    6    6    5       -0.0009043403
    7    6    6    6       -0.0014727557
    7    6    6    7        0.0161454090
    7    7    6    1        0.0024128420
    7    7    6    2       -0.0135325427
    7    7    6    4        0.0059852327
    7    7    6    5       -0.2164897884
    7    7    6    6        0.4351969048
    7    7    6    7        0.0052651709
    7    8    6    3       -0.0005393367
    7    8    6    8        0.0013494283
    7    1    7    1        0.0511905260
    7    1    7    2        0.0232781991
    7    1    7    4        0.0036799106
    7    1    7    5       -0.0005831184
    7    1    7    6       -0.0016828255
    7    1    7    7       -0.0132941004
    7    2    7    1        0.0232781991
    7    2    7    2        0.0572740068
    7    2    7    4        0.0135193778
    7    2    7    5       -0.0020338106
    7    2    7    6       -0.0031221329
    7    2    7    7       -0.0298344930
    7    3    7    3        0.0277186954
    7    3    7    8       -0.0168481688
    7    4    7    1        0.0036799106
    7    4    7    2        0.0135193778
    7    4    7    4        0.1997342818
    7    4    7    5        0.0023258122
    7    4    7    6        0.0043411694
    7    4    7    7       -0.0865151174
    7    5    7    1       -0.0005831184
    7    5    7    2       -0.0020338106
    7    5    7    4        0.0023258122
    7    5    7    5        0.0165798779
    7    5    7    6       -0.0154129672
    7    5    7    7       -0.0004771034
    7    6    7    1       -0.0016828255
    7    6    7    2       -0.0031221329
    7    6    7    4        0.0043411694
    7    6    7    5       -0.0154129672
    7    6    7    6        0.0161953755
    7    6    7    7        0.0052651709
    7    7    7    1       -0.0132941004
    7    7    7    2       -0.0298344930
    7    7    7    4       -0.0865151174
    7    7    7    5       -0.0004771034
    7    7    7    6        0.0052651709
    7    7    7    7        0.7898906510
    7    8    7    3       -0.0168481688
    7    8    7    8        0.0278559430
    7    1    8    3       -0.0049992582
    7    1    8    8        0.0074311603
    7    2    8    3        0.0097652724
    7    2    8    8       -0.0092391798
    7    3    8    1        0.0092900646
    7    3    8    2        0.0123842775
    7    3    8    4        0.0174470705
    7    3    8    5       -0.0000493419
    7    3    8    6       -0.0006102730
    7    3    8    7       -0.0172880472
    7    4    8    3        0.1108201734
    7    4    8    8       -0.1384347968
    7    5    8    3        0.0010639910
    7    5    8    8       -0.0010770850
    7    6    8    3        0.0014604249
    7    6    8    8       -0.0007175498
    7    7    8    3       -0.1623958570
    7    7    8    8        0.5659254014
    7    8    8    1       -0.0094660627
    7    8    8    2       -0.0059831761
    7    8    8    4       -0.0040982728
    7    8    8    5        0.0004909004
    7    8    8    6        0.0013584551
    7    8    8    7        0.0278538999
    8    1    1    3       -0.0392681642
    8    1    1    8        0.0531778138
    8    2    1    3       -0.0186910311
    8    2    1    8        0.0255677716
    8    3    1    1       -0.5012868860
    8    3    1    2       -0.0027889481
    8    3    1    4        0.0031563196
    8    3    1    5       -0.0012191713
    8    3    1    6       -0.0012238866
    8    3    1    7       -0.0057595640
    8    4    1    3       -0.0024947242
    8    4    1    8        0.0027666988
    8    5    1    3        0.0004913012
    8    5    1    8       -0.0008560074
    8    6    1    3        0.0014872257
    8    6    1    8       -0.0021975293
    8    7    1    3        0.0069895530
    8    7    1    8       -0.0094660627
    8    8    1    1        1.0100002031
    8    8    1    2        0.0012031992
    8    8    1    4       -0.0048941063
    8    8    1    5        0.0016057338
    8    8    1    6        0.0018669119
    8    8    1    7        0.0074311603
    8    1    2    3       -0.0372785120
    8    1    2    8        0.0255677716
    8    2    2    3       -0.0511509242
    8    2    2    8        0.0454698724
    8    3    2    1       -0.0025073298
    8    3    2    2       -0.2117174754
    8    3    2    4        0.0054167113
    8    3    2    5        0.0071850136
    8    3    2    6        0.0104143980
    8    3    2    7        0.0076525870
    8    4    2    3        0.0015028963
    8    4    2    8        0.0024491842
    8    5    2    3        0.0035802315
    8    5    2    8       -0.0008097158
    8    6    2    3        0.0072798736
    8    6    2    8       -0.0024208115
    8    7    2    3        0.0232487218
    8    7    2    8       -0.0059831761
    8    8    2    1        0.0012031992
    8    8    2    2        0.6246711999
    8    8    2    4        0.0055779598
    8    8    2    5       -0.0115294821
    8    8    2    6       -0.0145147905
    8    8    2    7       -0.0092391798
    8    1    3    1       -0.0386195215
    8    1    3    2       -0.0375797134
    8    1    3    4       -0.0069690141
    8    1    3    5        0.0008821214
    8    1    3    6        0.0019040439
    8    1    3    7        0.0094209873
    8    2    3    1       -0.0205401511
    8    2    3    2       -0.0518355006
    8    2    3    4       -0.0041654007
    8    2    3    5        0.0019108404
    8    2    3    6        0.0038553263
    8    2    3    7        0.0112263787
    8    3    3    3       -0.2058376256
    8    3    3    8        0.1555829742
    8    4    3    1       -0.0025136343
    8    4    3    2        0.0013742925
    8    4    3    4       -0.0043913371
    8    4    3    5       -0.0001263900
    8    4    3    6        0.0002347028
    8    4    3    7        0.0159760633
    8    5    3    1        0.0006038128
    8    5    3    2        0.0037387010
    8    5    3    4        0.0002199300
    8    5    3    5       -0.0063661588
    8    5    3    6        0.0076576769
    8    5    3    7       -0.0001077271
    8    6    3    1        0.0014564920
    8    6    3    2        0.0073258004
    8    6    3    4        0.0010621927
    8    6    3    5        0.0090415292
    8    6    3    6       -0.0108387998
    8    6    3    7       -0.0005748398
    8    7    3    1        0.0068911732
    8    7    3    2        0.0235534232
    8    7    3    4        0.0269065072
    8    7    3    5       -0.0000073479
    8    7    3    6       -0.0005393367
    8    7    3    7       -0.0168481688
    8    8    3    3        0.6372347904
    8    8    3    8       -0.1730785723
    8    1    4    3       -0.0069436914
    8    1    4    8        0.0027666988
    8    2    4    3       -0.0037426998
    8    2    4    8        0.0024491842
    8    3    4    1        0.0030994511
    8    3    4    2        0.0052819186
    8    3    4    4       -0.1416140162
    8    3    4    5       -0.0026136116
    8    3    4    6       -0.0008826797
    8    3    4    7        0.1153198644
    8    4    4    3       -0.0043263170
    8    4    4    8        0.0168695820
    8    5    4    3        0.0001727506
    8    5    4    8        0.0004403141
    8    6    4    3        0.0011188429
    8    6    4    8        0.0002957858
    8    7    4    3        0.0263185082
    8    7    4    8       -0.0040982728
    8    8    4    1       -0.0048941063
    8    8    4    2        0.0055779598
    8    8    4    4        0.5528544171
    8    8    4    5        0.0044552017
    8    8    4    6        0.0031366636
    8    8    4    7       -0.1384347968
    8    1    5    3        0.0008496273
    8    1    5    8       -0.0008560074
    8    2    5    3        0.0022902890
    8    2    5    8       -0.0008097158
    8    3    5    1       -0.0012405317
    8    3    5    2        0.0078551006
    8    3    5    4       -0.0027103045
    8    3    5    5       -0.0993545209
    8    3    5    6        0.0947845250
    8    3    5    7        0.0013055890
    8    4    5    3       -0.0001503348
    8    4    5    8        0.0004403141
    8    5    5    3       -0.0061453081
    8    5    5    8        0.0105376657
    8    6    5    3        0.0079514900
    8    6    5    8       -0.0079634764
    8    7    5    3        0.0000682337
    8    7    5    8        0.0004909004
    8    8    5    1        0.0016057338
    8    8    5    2       -0.0115294821
    8    8    5    4        0.0044552017
    8    8    5    5        0.4192355196
    8    8    5    6       -0.1894053630
    8    8    5    7       -0.0010770850
    8    1    6    3        0.0019017659
    8    1    6    8       -0.0021975293
    8    2    6    3        0.0047430555
    8    2    6    8       -0.0024208115
    8    3    6    1       -0.0010582370
    8    3    6    2        0.0115313715
    8    3    6    4       -0.0012783724
    8    3    6    5        0.0995337876
    8    3    6    6       -0.1105813607
    8    3    6    7        0.0013337815
    8    4    6    3        0.0001294660
    8    4    6    8        0.0002957858
    8    5    6    3        0.0121257402
    8    5    6    8       -0.0079634764
    8    6    6    3       -0.0096551626
    8    6    6    8        0.0094366871
    8    7    6    3       -0.0006154708
    8    7    6    8        0.0013584551
    8    8    6    1        0.0018669119
    8    8    6    2       -0.0145147905
    8    8    6    4        0.0031366636
    8    8    6    5       -0.1894053630
    8    8    6    6        0.4185461135
    8    8    6    7       -0.0007175498
    8    1    7    3        0.0092900646
    8    1    7    8       -0.0094660627
    8    2    7    3        0.0123842775
    8    2    7    8       -0.0059831761
    8    3    7    1       -0.0049992582
    8    3    7    2        0.0097652724
    8    3    7    4        0.1108201734
    8    3    7    5        0.0010639910
    8    3    7    6        0.0014604249
    8    3    7    7       -0.1623958570
    8    4    7    3        0.0174470705
    8    4    7    8       -0.0040982728
    8    5    7    3       -0.0000493419
    8    5    7    8        0.0004909004
    8    6    7    3       -0.0006102730
    8    6    7    8        0.0013584551
    8    7    7    3       -0.0172880472
    8    7    7    8        0.0278538999
    8    8    7    1        0.0074311603
    8    8    7    2       -0.0092391798
    8    8    7    4       -0.1384347968
    8    8    7    5       -0.0010770850
    8    8    7    6       -0.0007175498
    8    8    7    7        0.5659254014
    8    1    8    1        0.0522713525
    8    1    8    2        0.0257856437
    8    1    8    4        0.0025631579
    8    1    8    5       -0.0009150091
    8    1    8    6       -0.0021567911
    8    1    8    7       -0.0092905794
    8    2    8    1        0.0257856437
    8    2    8    2        0.0502837540
    8    2    8    4        0.0027655645
    8    2    8    5       -0.0010617015
    8    2    8    6       -0.0025088057
    8    2    8    7       -0.0067107007
    8    3    8    3        0.1514813740
    8    3    8    8       -0.1730785723
    8    4    8    1        0.0025631579
    8    4    8    2        0.0027655645
    8    4    8    4        0.0156974343
    8    4    8    5        0.0003528182
    8    4    8    6        0.0003328982
    8    4    8    7       -0.0041128752
    8    5    8    1       -0.0009150091
    8    5    8    2       -0.0010617015
    8    5    8    4        0.0003528182
    8    5    8    5        0.0119444047
    8    5    8    6       -0.0088322405
    8    5    8    7        0.0005628552
    8    6    8    1       -0.0021567911
    8    6    8    2       -0.0025088057
    8    6    8    4        0.0003328982
    8    6    8    5       -0.0088322405
    8    6    8    6        0.0094751642
    8    6    8    7        0.0013494283
    8    7    8    1       -0.0092905794
    8    7    8    2       -0.0067107007
    8    7    8    4       -0.0041128752
    8    7    8    5        0.0005628552
    8    7    8    6        0.0013494283
    8    7    8    7        0.0278559430
    8    8    8    3       -0.1730785723
    8    8    8    8        0.5808232574
 end_two_electron_integrals

 Parallel integral file used       3 records with       0 large values


 Task  times  cpu:       46.9s     wall:       47.3s


                                NWChem Input Module
                                -------------------


 Summary of allocated global arrays
-----------------------------------
  No active global arrays


MA_summarize_allocated_blocks: starting scan ...
MA_summarize_allocated_blocks: scan completed: 0 heap blocks, 0 stack blocks
MA usage statistics:

	allocation statistics:
					      heap	     stack
					      ----	     -----
	current number of blocks	         0	         0
	maximum number of blocks	        18	        42
	current total bytes		         0	         0
	maximum total bytes		   5323032	 716782712
	maximum total K-bytes		      5324	    716783
	maximum total M-bytes		         6	       717


                                     CITATION
                                     --------
                Please cite the following reference when publishing
                           results obtained with NWChem:

          E. Apra, E. J. Bylaska, W. A. de Jong, N. Govind, K. Kowalski,
       T. P. Straatsma, M. Valiev, H. J. J. van Dam, Y. Alexeev, J. Anchell,
       V. Anisimov, F. W. Aquino, R. Atta-Fynn, J. Autschbach, N. P. Bauman,
     J. C. Becca, D. E. Bernholdt, K. Bhaskaran-Nair, S. Bogatko, P. Borowski,
         J. Boschen, J. Brabec, A. Bruner, E. Cauet, Y. Chen, G. N. Chuev,
      C. J. Cramer, J. Daily, M. J. O. Deegan, T. H. Dunning Jr., M. Dupuis,
   K. G. Dyall, G. I. Fann, S. A. Fischer, A. Fonari, H. Fruchtl, L. Gagliardi,
      J. Garza, N. Gawande, S. Ghosh, K. Glaesemann, A. W. Gotz, J. Hammond,
       V. Helms, E. D. Hermes, K. Hirao, S. Hirata, M. Jacquelin, L. Jensen,
   B. G. Johnson, H. Jonsson, R. A. Kendall, M. Klemm, R. Kobayashi, V. Konkov,
      S. Krishnamoorthy, M. Krishnan, Z. Lin, R. D. Lins, R. J. Littlefield,
      A. J. Logsdail, K. Lopata, W. Ma, A. V. Marenich, J. Martin del Campo,
   D. Mejia-Rodriguez, J. E. Moore, J. M. Mullin, T. Nakajima, D. R. Nascimento,
    J. A. Nichols, P. J. Nichols, J. Nieplocha, A. Otero-de-la-Roza, B. Palmer,
    A. Panyala, T. Pirojsirikul, B. Peng, R. Peverati, J. Pittner, L. Pollack,
   R. M. Richard, P. Sadayappan, G. C. Schatz, W. A. Shelton, D. W. Silverstein,
   D. M. A. Smith, T. A. Soares, D. Song, M. Swart, H. L. Taylor, G. S. Thomas,
            V. Tipparaju, D. G. Truhlar, K. Tsemekhman, T. Van Voorhis,
      A. Vazquez-Mayagoitia, P. Verma, O. Villa, A. Vishnu, K. D. Vogiatzis,
        D. Wang, J. H. Weare, M. J. Williamson, T. L. Windus, K. Wolinski,
        A. T. Wong, Q. Wu, C. Yang, Q. Yu, M. Zacharias, Z. Zhang, Y. Zhao,
                                and R. J. Harrison
                        "NWChem: Past, present, and future
                         J. Chem. Phys. 152, 184102 (2020)
                               doi:10.1063/5.0004997

                                      AUTHORS
                                      -------
  E. Apra, E. J. Bylaska, N. Govind, K. Kowalski, M. Valiev, D. Mejia-Rodriguez,
       A. Kunitsa, N. P. Bauman, A. Panyala, W. A. de Jong, T. P. Straatsma,
        H. J. J. van Dam, D. Wang, T. L. Windus, J. Hammond, J. Autschbach,
    K. Bhaskaran-Nair, J. Brabec, K. Lopata, S. A. Fischer, S. Krishnamoorthy,
     M. Jacquelin, W. Ma, M. Klemm, O. Villa, Y. Chen, V. Anisimov, F. Aquino,
    S. Hirata, M. T. Hackler, Eric Hermes, L. Jensen, J. E. Moore, J. C. Becca,
      V. Konjkov, T. Risthaus, M. Malagoli, A. Marenich, A. Otero-de-la-Roza,
        J. Mullin, P. Nichols, R. Peverati, J. Pittner, Y. Zhao, P.-D. Fan,
        A. Fonari, M. J. Williamson, R. J. Harrison, J. R. Rehr, M. Dupuis,
     D. Silverstein, D. M. A. Smith, J. Nieplocha, V. Tipparaju, M. Krishnan,
     B. E. Van Kuiken, A. Vazquez-Mayagoitia, M. Swart, Q. Wu, T. Van Voorhis,
     A. A. Auer, M. Nooijen, L. D. Crosby, E. Brown, G. Cisneros, G. I. Fann,
   H. Fruchtl, J. Garza, K. Hirao, R. A. Kendall, J. A. Nichols, K. Tsemekhman,
    K. Wolinski, J. Anchell, D. E. Bernholdt, P. Borowski, T. Clark, D. Clerc,
   H. Dachsel, M. J. O. Deegan, K. Dyall, D. Elwood, E. Glendening, M. Gutowski,
   A. C. Hess, J. Jaffe, B. G. Johnson, J. Ju, R. Kobayashi, R. Kutteh, Z. Lin,
   R. Littlefield, X. Long, B. Meng, T. Nakajima, S. Niu, L. Pollack, M. Rosing,
   K. Glaesemann, G. Sandrone, M. Stave, H. Taylor, G. Thomas, J. H. van Lenthe,
                               A. T. Wong, Z. Zhang.

 Total times  cpu:       51.8s     wall:       56.1s
