 argument  1 = input.nw
  NWChem w/ OpenMP: maximum threads =    1



============================== echo of input deck ==============================
 echo
 start H2
 title "H2"

 memory total 24 gb

 geometry units bohr
 symmetry c1
        H  0.00000000  0.00000000  0.00000000
        H  0.00000000  1.55  0.00000000
 end

 basis
   * library cc-pVQZ
 end

 mcscf
   active  10
   actelec 2
   multiplicity 1
   maxiter 40
   vectors input H2.mos
   vectors output H2.mos
 end

 task mcscf

 scf
   vectors input H2.mos
   vectors output H2-1.55.mos
   noscf
 end

 tce
   2eorb
   2emet 13
   ccsd
   maxiter 300
   lshift 0.8
 end

# set tce:print_integrals T
# set tce:qorb 10
# set tce:qela 1
# set tce:qelb 1

 set tce:qducc T
 set tce:nactv 9
 set tce:nonhf T
 set tce:ducc_model 3

 set tce:printtol 0.02

 task tce
================================================================================


                                         
                                         


             Northwest Computational Chemistry Package (NWChem) 7.0.1
             --------------------------------------------------------


                    Environmental Molecular Sciences Laboratory
                       Pacific Northwest National Laboratory
                                Richland, WA 99352

                              Copyright (c) 1994-2020
                       Pacific Northwest National Laboratory
                            Battelle Memorial Institute

             NWChem is an open-source computational chemistry package
                        distributed under the terms of the
                      Educational Community License (ECL) 2.0
             A copy of the license is included with this distribution
                              in the LICENSE.TXT file

                                  ACKNOWLEDGMENT
                                  --------------

            This software and its documentation were developed at the
            EMSL at Pacific Northwest National Laboratory, a multiprogram
            national laboratory, operated for the U.S. Department of Energy
            by Battelle under Contract Number DE-AC05-76RL01830. Support
            for this work was provided by the Department of Energy Office
            of Biological and Environmental Research, Office of Basic
            Energy Sciences, and the Office of Advanced Scientific Computing.


           Job information
           ---------------

    hostname        = WE46210
    program         = /home/baum612/code/nwchem/bin/LINUX64/nwchem
    date            = Fri Nov 10 21:45:59 2023

    compiled        = Mon_Nov_06_10:06:57_2023
    source          = /home/baum612/code/nwchem
    nwchem branch   = 7.0.0
    nwchem revision = nwchem_on_git-4191-g39d87d64de
    ga revision     = 5.8.1
    use scalapack   = F
    input           = input.nw
    prefix          = H2.
    data base       = ./H2.db
    status          = startup
    nproc           =        1
    time left       =     -1s



           Memory information
           ------------------

    heap     =  805306362 doubles =   6144.0 Mbytes
    stack    =  805306367 doubles =   6144.0 Mbytes
    global   = 1610612736 doubles =  12288.0 Mbytes (distinct from heap & stack)
    total    = 3221225465 doubles =  24576.0 Mbytes
    verify   = yes
    hardfail = no 


           Directory information
           ---------------------

  0 permanent = .
  0 scratch   = .




                                NWChem Input Module
                                -------------------


                                        H2
                                        --
 Turning off AUTOSYM since
 SYMMETRY directive was detected!


          ------
          auto-z
          ------
  no constraints, skipping    0.0000000000000000     
  no constraints, skipping    0.0000000000000000     


                             Geometry "geometry" -> ""
                             -------------------------

 Output coordinates in a.u. (scale by  1.000000000 to convert to a.u.)

  No.       Tag          Charge          X              Y              Z
 ---- ---------------- ---------- -------------- -------------- --------------
    1 H                    1.0000     0.00000000    -0.77500000     0.00000000
    2 H                    1.0000     0.00000000     0.77500000     0.00000000

      Atomic Mass 
      ----------- 

      H                  1.007825


 Effective nuclear repulsion energy (a.u.)       0.6451612903

            Nuclear Dipole moment (a.u.) 
            ----------------------------
        X                 Y               Z
 ---------------- ---------------- ----------------
     0.0000000000     0.0000000000     0.0000000000



                                Z-matrix (autoz)
                                -------- 

 Units are Angstrom for bonds and degrees for angles

      Type          Name      I     J     K     L     M      Value
      ----------- --------  ----- ----- ----- ----- ----- ----------
    1 Stretch                  1     2                       0.82022


            XYZ format geometry
            -------------------
     2
 geometry
 H                     0.00000000    -0.41011237     0.00000000
 H                     0.00000000     0.41011237     0.00000000



 Summary of "ao basis" -> "" (cartesian)
 ------------------------------------------------------------------------------
       Tag                 Description            Shells   Functions and Types
 ---------------- ------------------------------  ------  ---------------------
 *                          cc-pVQZ                   on all atoms 


                      Basis "ao basis" -> "ao basis" (cartesian)
                      -----
  H (Hydrogen)
  ------------
            Exponent  Coefficients 
       -------------- ---------------------------------------------------------
  1 S  8.26400000E+01  0.002006
  1 S  1.24100000E+01  0.015343
  1 S  2.82400000E+00  0.075579

  2 S  7.97700000E-01  1.000000

  3 S  2.58100000E-01  1.000000

  4 S  8.98900000E-02  1.000000

  5 P  2.29200000E+00  1.000000

  6 P  8.38000000E-01  1.000000

  7 P  2.92000000E-01  1.000000

  8 D  2.06200000E+00  1.000000

  9 D  6.62000000E-01  1.000000

 10 F  1.39700000E+00  1.000000



 Summary of "ao basis" -> "ao basis" (cartesian)
 ------------------------------------------------------------------------------
       Tag                 Description            Shells   Functions and Types
 ---------------- ------------------------------  ------  ---------------------
 H                          cc-pVQZ                 10       35   4s3p2d1f



                            NWChem Direct MCSCF Module
                            --------------------------


                                        H2


     -----------------------------------
       Basis functions:             70
       Inactive shells:              0
       Active shells:               10
       Active electrons:             2
       Symmetry:                    a       
       Multiplicity:                 1
       Orbital rotations:          600
     -----------------------------------

     -----------------------------------
       E2 extrapolation:             F
       Conjugacy:                    T
       Micro CI relax:               T
       Canonical orbitals:           T
       Maximum iterations:          40
       Converge threshold:    1.00E-04
       Conjugacy resets:            20
       Initial levelshift:        0.10
     -----------------------------------

 Loading old vectors from job with title :

H2


   input molecular orbitals = ./H2.mos
  output molecular orbtials = ./H2.mos

       No. of determinants:           100


  Starting Orbital Energies
    -0.603865    -0.015552    -0.005055    -0.003720    -0.003720    -0.000316
    -0.000294    -0.000228    -0.000228    -0.000152     0.379841     0.850259
     1.083196     1.249592     1.249592     1.309526     1.309526     1.547634
     1.935069     1.935069     1.950575     2.456446     2.456446     2.535367
     2.535367     2.945940     3.077821     3.113431     3.113431     3.763885
     4.208195     4.208195     4.437526     4.437526     4.719797     5.717087
     5.717087     6.104254     6.104254     6.671823     6.671823     7.352539
     7.352539     7.427983     7.499201     7.499201     7.589461     7.695008
     7.695008     8.024851     8.024851     8.064370     8.301452     8.301452
     8.911706     8.911706     9.410135     9.457206     9.723569     9.729742
     9.729742     9.819239     9.819239    12.084454    12.194695    12.194695
    12.344249    15.375052    24.796234    25.699342

  Orbital Symmetry Irreps
a    a    a    a    a    a    a    a    a    a    a    a    a    a    a   
a    a    a    a    a    a    a    a    a    a    a    a    a    a    a   
a    a    a    a    a    a    a    a    a    a    a    a    a    a    a   
a    a    a    a    a    a    a    a    a    a    a    a    a    a    a   
a    a    a    a    a    a    a    a    a    a   

 Integral file          = ./H2.aoints.0
 Record size in doubles =  65536        No. of integs per rec  =  43688
 Max. records in memory =     99        Max. records in file   = 280207
 No. of bits per label  =      8        No. of bits per value  =     64


 #quartets = 2.216D+04 #integrals = 8.606D+05 #direct =  0.0% #cached =100.0%




          %%%%% MacroIteration   1 %%%%%


          Number of sigma calls:       16
                       o<<<<< (aa):             0.00
                       o<<<<< (bb):             0.00
                       o<<<<< (ab):             0.00
                       o<<<<< (total)           0.00
                       o<<<<< (aa) ff           0.00
                       o<<<<< (aa) gop          0.00
                       o<<<<< (aa) dot          0.00
                       o<<<<< (ab) str          0.00
                       o<<<<< (ab) gath         0.00
                       o<<<<< (ab) dotab        0.00
                       o<<<<< (ab) scat         0.00
                       o<<<<< (ab) sync         0.00
                       o<<<<< Density           0.00
                       o<<<<< Density one       0.00
                       o<<<<< Density two       0.00
                       o<<<<< Density ab        0.00
                       o<<<<< Spin adapt        0.00
                       o<<<<< Symm adapt        0.00

                       o<<<<< (ab) max sync:      0.00

           >>>| Valence CI:             -1.813744945168
           >>>| MCSCF energy:           -1.168583654845
           >>>| Gradient norm:          0.169251951D-01
     --- Warning:  300 Hessian diagonals < 0.05 ---

                              ----- Line search ------

        step       energy         lsg     num-lsg   num-lsh   lsrat    time
      ------- ---------------- --------- --------- --------- ------- --------
       0.0000      -1.16858365 -1.32D-05  0.00D+00  0.00D+00 0.0D+00      0.3

          Number of sigma calls:       15
                       o<<<<< (aa):             0.00
                       o<<<<< (bb):             0.00
                       o<<<<< (ab):             0.02
                       o<<<<< (total)           0.02
                       o<<<<< (aa) ff           0.00
                       o<<<<< (aa) gop          0.00
                       o<<<<< (aa) dot          0.00
                       o<<<<< (ab) str          0.00
                       o<<<<< (ab) gath         0.00
                       o<<<<< (ab) dotab        0.00
                       o<<<<< (ab) scat         0.00
                       o<<<<< (ab) sync         0.00
                       o<<<<< Density           0.00
                       o<<<<< Density one       0.00
                       o<<<<< Density two       0.00
                       o<<<<< Density ab        0.00
                       o<<<<< Spin adapt        0.00
                       o<<<<< Symm adapt        0.00

                       o<<<<< (ab) max sync:      0.00
       1.0000      -1.16859170 -2.86D-06 -2.86D-06  1.04D-05 2.2D-01      0.5

          Number of sigma calls:       13
                       o<<<<< (aa):             0.00
                       o<<<<< (bb):             0.00
                       o<<<<< (ab):             0.01
                       o<<<<< (total)           0.01
                       o<<<<< (aa) ff           0.00
                       o<<<<< (aa) gop          0.00
                       o<<<<< (aa) dot          0.00
                       o<<<<< (ab) str          0.00
                       o<<<<< (ab) gath         0.00
                       o<<<<< (ab) dotab        0.00
                       o<<<<< (ab) scat         0.00
                       o<<<<< (ab) sync         0.00
                       o<<<<< Density           0.00
                       o<<<<< Density one       0.00
                       o<<<<< Density two       0.00
                       o<<<<< Density ab        0.00
                       o<<<<< Spin adapt        0.00
                       o<<<<< Symm adapt        0.00

                       o<<<<< (ab) max sync:      0.00
       1.2753      -1.16859209  2.94D-09  2.84D-09  1.04D-05 2.2D-04      0.6
     --- Orbitals canonicalized ---



          %%%%% MacroIteration   2 %%%%%


          Number of sigma calls:       17
                       o<<<<< (aa):             0.00
                       o<<<<< (bb):             0.00
                       o<<<<< (ab):             0.02
                       o<<<<< (total)           0.02
                       o<<<<< (aa) ff           0.00
                       o<<<<< (aa) gop          0.00
                       o<<<<< (aa) dot          0.00
                       o<<<<< (ab) str          0.00
                       o<<<<< (ab) gath         0.00
                       o<<<<< (ab) dotab        0.00
                       o<<<<< (ab) scat         0.00
                       o<<<<< (ab) sync         0.00
                       o<<<<< Density           0.00
                       o<<<<< Density one       0.00
                       o<<<<< Density two       0.00
                       o<<<<< Density ab        0.00
                       o<<<<< Spin adapt        0.00
                       o<<<<< Symm adapt        0.00

                       o<<<<< (ab) max sync:      0.00

           >>>| Valence CI:             -1.813753384765
           >>>| MCSCF energy:           -1.168592094443
           >>>| Gradient norm:          0.408298747D-02
     --- Warning:  311 Hessian diagonals < 0.05 ---
     --- Conjugacy reset ---

                              ----- Line search ------

        step       energy         lsg     num-lsg   num-lsh   lsrat    time
      ------- ---------------- --------- --------- --------- ------- --------
       0.0000      -1.16859209 -1.30D-06  0.00D+00  0.00D+00 0.0D+00      0.9

          Number of sigma calls:       12
                       o<<<<< (aa):             0.00
                       o<<<<< (bb):             0.00
                       o<<<<< (ab):             0.01
                       o<<<<< (total)           0.01
                       o<<<<< (aa) ff           0.00
                       o<<<<< (aa) gop          0.00
                       o<<<<< (aa) dot          0.00
                       o<<<<< (ab) str          0.00
                       o<<<<< (ab) gath         0.00
                       o<<<<< (ab) dotab        0.00
                       o<<<<< (ab) scat         0.00
                       o<<<<< (ab) sync         0.00
                       o<<<<< Density           0.00
                       o<<<<< Density one       0.00
                       o<<<<< Density two       0.00
                       o<<<<< Density ab        0.00
                       o<<<<< Spin adapt        0.00
                       o<<<<< Symm adapt        0.00

                       o<<<<< (ab) max sync:      0.00
       1.0000      -1.16859296 -4.44D-07 -4.44D-07  8.52D-07 3.4D-01      1.1

          Number of sigma calls:       11
                       o<<<<< (aa):             0.00
                       o<<<<< (bb):             0.00
                       o<<<<< (ab):             0.00
                       o<<<<< (total)           0.00
                       o<<<<< (aa) ff           0.00
                       o<<<<< (aa) gop          0.00
                       o<<<<< (aa) dot          0.00
                       o<<<<< (ab) str          0.00
                       o<<<<< (ab) gath         0.00
                       o<<<<< (ab) dotab        0.00
                       o<<<<< (ab) scat         0.00
                       o<<<<< (ab) sync         0.00
                       o<<<<< Density           0.00
                       o<<<<< Density one       0.00
                       o<<<<< Density two       0.00
                       o<<<<< Density ab        0.00
                       o<<<<< Spin adapt        0.00
                       o<<<<< Symm adapt        0.00

                       o<<<<< (ab) max sync:      0.00
       1.5210      -1.16859308  3.40D-10  3.20D-10  8.52D-07 2.6D-04      1.1



          %%%%% MacroIteration   3 %%%%%


          Number of sigma calls:        1
                       o<<<<< (aa):             0.00
                       o<<<<< (bb):             0.00
                       o<<<<< (ab):             0.00
                       o<<<<< (total)           0.00
                       o<<<<< (aa) ff           0.00
                       o<<<<< (aa) gop          0.00
                       o<<<<< (aa) dot          0.00
                       o<<<<< (ab) str          0.00
                       o<<<<< (ab) gath         0.00
                       o<<<<< (ab) dotab        0.00
                       o<<<<< (ab) scat         0.00
                       o<<<<< (ab) sync         0.00
                       o<<<<< Density           0.00
                       o<<<<< Density one       0.00
                       o<<<<< Density two       0.00
                       o<<<<< Density ab        0.00
                       o<<<<< Spin adapt        0.00
                       o<<<<< Symm adapt        0.00

                       o<<<<< (ab) max sync:      0.00

           >>>| Valence CI:             -1.813754369762
           >>>| MCSCF energy:           -1.168593079439
           >>>| Gradient norm:          0.200830581D-02
     --- Warning:  311 Hessian diagonals < 0.05 ---

                              ----- Line search ------

        step       energy         lsg     num-lsg   num-lsh   lsrat    time
      ------- ---------------- --------- --------- --------- ------- --------
       0.0000      -1.16859308 -2.22D-07  0.00D+00  0.00D+00 0.0D+00      1.1

          Number of sigma calls:       12
                       o<<<<< (aa):             0.00
                       o<<<<< (bb):             0.00
                       o<<<<< (ab):             0.01
                       o<<<<< (total)           0.01
                       o<<<<< (aa) ff           0.00
                       o<<<<< (aa) gop          0.00
                       o<<<<< (aa) dot          0.00
                       o<<<<< (ab) str          0.00
                       o<<<<< (ab) gath         0.00
                       o<<<<< (ab) dotab        0.00
                       o<<<<< (ab) scat         0.00
                       o<<<<< (ab) sync         0.00
                       o<<<<< Density           0.00
                       o<<<<< Density one       0.00
                       o<<<<< Density two       0.00
                       o<<<<< Density ab        0.00
                       o<<<<< Spin adapt        0.00
                       o<<<<< Symm adapt        0.00

                       o<<<<< (ab) max sync:      0.00
       1.0000      -1.16859323 -6.98D-08 -6.98D-08  1.52D-07 3.1D-01      1.2

          Number of sigma calls:       11
                       o<<<<< (aa):             0.00
                       o<<<<< (bb):             0.00
                       o<<<<< (ab):             0.01
                       o<<<<< (total)           0.01
                       o<<<<< (aa) ff           0.00
                       o<<<<< (aa) gop          0.00
                       o<<<<< (aa) dot          0.00
                       o<<<<< (ab) str          0.00
                       o<<<<< (ab) gath         0.00
                       o<<<<< (ab) dotab        0.00
                       o<<<<< (ab) scat         0.00
                       o<<<<< (ab) sync         0.00
                       o<<<<< Density           0.00
                       o<<<<< Density one       0.00
                       o<<<<< Density two       0.00
                       o<<<<< Density ab        0.00
                       o<<<<< Spin adapt        0.00
                       o<<<<< Symm adapt        0.00

                       o<<<<< (ab) max sync:      0.00
       1.4583      -1.16859324  3.88D-11  3.67D-11  1.52D-07 1.7D-04      1.4



          %%%%% MacroIteration   4 %%%%%


          Number of sigma calls:        1
                       o<<<<< (aa):             0.00
                       o<<<<< (bb):             0.00
                       o<<<<< (ab):             0.00
                       o<<<<< (total)           0.00
                       o<<<<< (aa) ff           0.00
                       o<<<<< (aa) gop          0.00
                       o<<<<< (aa) dot          0.00
                       o<<<<< (ab) str          0.00
                       o<<<<< (ab) gath         0.00
                       o<<<<< (ab) dotab        0.00
                       o<<<<< (ab) scat         0.00
                       o<<<<< (ab) sync         0.00
                       o<<<<< Density           0.00
                       o<<<<< Density one       0.00
                       o<<<<< Density two       0.00
                       o<<<<< Density ab        0.00
                       o<<<<< Spin adapt        0.00
                       o<<<<< Symm adapt        0.00

                       o<<<<< (ab) max sync:      0.00

           >>>| Valence CI:             -1.813754531633
           >>>| MCSCF energy:           -1.168593241310
           >>>| Gradient norm:          0.918078985D-03
     --- Warning:  311 Hessian diagonals < 0.05 ---

                              ----- Line search ------

        step       energy         lsg     num-lsg   num-lsh   lsrat    time
      ------- ---------------- --------- --------- --------- ------- --------
       0.0000      -1.16859324 -6.28D-08  0.00D+00  0.00D+00 0.0D+00      1.5

          Number of sigma calls:       12
                       o<<<<< (aa):             0.00
                       o<<<<< (bb):             0.00
                       o<<<<< (ab):             0.00
                       o<<<<< (total)           0.00
                       o<<<<< (aa) ff           0.00
                       o<<<<< (aa) gop          0.00
                       o<<<<< (aa) dot          0.00
                       o<<<<< (ab) str          0.00
                       o<<<<< (ab) gath         0.00
                       o<<<<< (ab) dotab        0.00
                       o<<<<< (ab) scat         0.00
                       o<<<<< (ab) sync         0.00
                       o<<<<< Density           0.00
                       o<<<<< Density one       0.00
                       o<<<<< Density two       0.00
                       o<<<<< Density ab        0.00
                       o<<<<< Spin adapt        0.00
                       o<<<<< Symm adapt        0.00

                       o<<<<< (ab) max sync:      0.00
       1.0000      -1.16859330 -4.54D-08 -4.54D-08  1.74D-08 7.2D-01      1.6

          Number of sigma calls:       13
                       o<<<<< (aa):             0.00
                       o<<<<< (bb):             0.00
                       o<<<<< (ab):             0.01
                       o<<<<< (total)           0.01
                       o<<<<< (aa) ff           0.00
                       o<<<<< (aa) gop          0.00
                       o<<<<< (aa) dot          0.00
                       o<<<<< (ab) str          0.00
                       o<<<<< (ab) gath         0.00
                       o<<<<< (ab) dotab        0.00
                       o<<<<< (ab) scat         0.00
                       o<<<<< (ab) sync         0.00
                       o<<<<< Density           0.00
                       o<<<<< Density one       0.00
                       o<<<<< Density two       0.00
                       o<<<<< Density ab        0.00
                       o<<<<< Spin adapt        0.00
                       o<<<<< Symm adapt        0.00

                       o<<<<< (ab) max sync:      0.00
       3.6101      -1.16859335  4.20D-11  3.69D-11  1.74D-08 6.7D-04      1.8



          %%%%% MacroIteration   5 %%%%%


          Number of sigma calls:        1
                       o<<<<< (aa):             0.00
                       o<<<<< (bb):             0.00
                       o<<<<< (ab):             0.00
                       o<<<<< (total)           0.00
                       o<<<<< (aa) ff           0.00
                       o<<<<< (aa) gop          0.00
                       o<<<<< (aa) dot          0.00
                       o<<<<< (ab) str          0.00
                       o<<<<< (ab) gath         0.00
                       o<<<<< (ab) dotab        0.00
                       o<<<<< (ab) scat         0.00
                       o<<<<< (ab) sync         0.00
                       o<<<<< Density           0.00
                       o<<<<< Density one       0.00
                       o<<<<< Density two       0.00
                       o<<<<< Density ab        0.00
                       o<<<<< Spin adapt        0.00
                       o<<<<< Symm adapt        0.00

                       o<<<<< (ab) max sync:      0.00

           >>>| Valence CI:             -1.813754644928
           >>>| MCSCF energy:           -1.168593354606
           >>>| Gradient norm:          0.326939165D-03
     --- Warning:  311 Hessian diagonals < 0.05 ---

                              ----- Line search ------

        step       energy         lsg     num-lsg   num-lsh   lsrat    time
      ------- ---------------- --------- --------- --------- ------- --------
       0.0000      -1.16859335 -1.97D-07  0.00D+00  0.00D+00 0.0D+00      2.1

          Number of sigma calls:       11
                       o<<<<< (aa):             0.00
                       o<<<<< (bb):             0.00
                       o<<<<< (ab):             0.01
                       o<<<<< (total)           0.01
                       o<<<<< (aa) ff           0.00
                       o<<<<< (aa) gop          0.00
                       o<<<<< (aa) dot          0.00
                       o<<<<< (ab) str          0.00
                       o<<<<< (ab) gath         0.00
                       o<<<<< (ab) dotab        0.00
                       o<<<<< (ab) scat         0.00
                       o<<<<< (ab) sync         0.00
                       o<<<<< Density           0.00
                       o<<<<< Density one       0.00
                       o<<<<< Density two       0.00
                       o<<<<< Density ab        0.00
                       o<<<<< Spin adapt        0.00
                       o<<<<< Symm adapt        0.00

                       o<<<<< (ab) max sync:      0.00
       1.0000      -1.16859350 -9.18D-08 -9.19D-08  1.05D-07 4.7D-01      2.3

          Number of sigma calls:       11
                       o<<<<< (aa):             0.00
                       o<<<<< (bb):             0.00
                       o<<<<< (ab):             0.00
                       o<<<<< (total)           0.00
                       o<<<<< (aa) ff           0.00
                       o<<<<< (aa) gop          0.00
                       o<<<<< (aa) dot          0.00
                       o<<<<< (ab) str          0.00
                       o<<<<< (ab) gath         0.00
                       o<<<<< (ab) dotab        0.00
                       o<<<<< (ab) scat         0.00
                       o<<<<< (ab) sync         0.00
                       o<<<<< Density           0.00
                       o<<<<< Density one       0.00
                       o<<<<< Density two       0.00
                       o<<<<< Density ab        0.00
                       o<<<<< Spin adapt        0.00
                       o<<<<< Symm adapt        0.00

                       o<<<<< (ab) max sync:      0.00
       1.8754      -1.16859354  6.55D-10  6.04D-10  1.06D-07 3.3D-03      2.5



          %%%%% MacroIteration   6 %%%%%


          Number of sigma calls:        1
                       o<<<<< (aa):             0.00
                       o<<<<< (bb):             0.00
                       o<<<<< (ab):             0.00
                       o<<<<< (total)           0.00
                       o<<<<< (aa) ff           0.00
                       o<<<<< (aa) gop          0.00
                       o<<<<< (aa) dot          0.00
                       o<<<<< (ab) str          0.00
                       o<<<<< (ab) gath         0.00
                       o<<<<< (ab) dotab        0.00
                       o<<<<< (ab) scat         0.00
                       o<<<<< (ab) sync         0.00
                       o<<<<< Density           0.00
                       o<<<<< Density one       0.00
                       o<<<<< Density two       0.00
                       o<<<<< Density ab        0.00
                       o<<<<< Spin adapt        0.00
                       o<<<<< Symm adapt        0.00

                       o<<<<< (ab) max sync:      0.00

           >>>| Valence CI:             -1.813754829140
           >>>| MCSCF energy:           -1.168593538818
           >>>| Gradient norm:          0.202861840D-03
     --- Warning:  311 Hessian diagonals < 0.05 ---

                              ----- Line search ------

        step       energy         lsg     num-lsg   num-lsh   lsrat    time
      ------- ---------------- --------- --------- --------- ------- --------
       0.0000      -1.16859354 -1.89D-08  0.00D+00  0.00D+00 0.0D+00      2.6

          Number of sigma calls:       10
                       o<<<<< (aa):             0.00
                       o<<<<< (bb):             0.00
                       o<<<<< (ab):             0.01
                       o<<<<< (total)           0.01
                       o<<<<< (aa) ff           0.00
                       o<<<<< (aa) gop          0.00
                       o<<<<< (aa) dot          0.00
                       o<<<<< (ab) str          0.00
                       o<<<<< (ab) gath         0.00
                       o<<<<< (ab) dotab        0.00
                       o<<<<< (ab) scat         0.00
                       o<<<<< (ab) sync         0.00
                       o<<<<< Density           0.00
                       o<<<<< Density one       0.00
                       o<<<<< Density two       0.00
                       o<<<<< Density ab        0.00
                       o<<<<< Spin adapt        0.00
                       o<<<<< Symm adapt        0.00

                       o<<<<< (ab) max sync:      0.00
       1.0000      -1.16859355 -1.04D-08 -1.04D-08  8.54D-09 5.5D-01      2.8

          Number of sigma calls:       10
                       o<<<<< (aa):             0.00
                       o<<<<< (bb):             0.00
                       o<<<<< (ab):             0.03
                       o<<<<< (total)           0.03
                       o<<<<< (aa) ff           0.00
                       o<<<<< (aa) gop          0.00
                       o<<<<< (aa) dot          0.00
                       o<<<<< (ab) str          0.00
                       o<<<<< (ab) gath         0.00
                       o<<<<< (ab) dotab        0.00
                       o<<<<< (ab) scat         0.00
                       o<<<<< (ab) sync         0.00
                       o<<<<< Density           0.00
                       o<<<<< Density one       0.00
                       o<<<<< Density two       0.00
                       o<<<<< Density ab        0.00
                       o<<<<< Spin adapt        0.00
                       o<<<<< Symm adapt        0.00

                       o<<<<< (ab) max sync:      0.00
       2.2161      -1.16859356  1.09D-11  9.87D-12  8.54D-09 5.7D-04      3.0



          %%%%% MacroIteration   7 %%%%%


          Number of sigma calls:        1
                       o<<<<< (aa):             0.00
                       o<<<<< (bb):             0.00
                       o<<<<< (ab):             0.00
                       o<<<<< (total)           0.00
                       o<<<<< (aa) ff           0.00
                       o<<<<< (aa) gop          0.00
                       o<<<<< (aa) dot          0.00
                       o<<<<< (ab) str          0.00
                       o<<<<< (ab) gath         0.00
                       o<<<<< (ab) dotab        0.00
                       o<<<<< (ab) scat         0.00
                       o<<<<< (ab) sync         0.00
                       o<<<<< Density           0.00
                       o<<<<< Density one       0.00
                       o<<<<< Density two       0.00
                       o<<<<< Density ab        0.00
                       o<<<<< Spin adapt        0.00
                       o<<<<< Symm adapt        0.00

                       o<<<<< (ab) max sync:      0.00

           >>>| Valence CI:             -1.813754850096
           >>>| MCSCF energy:           -1.168593559773
           >>>| Gradient norm:          0.225114568D-03
     --- Warning:  311 Hessian diagonals < 0.05 ---

                              ----- Line search ------

        step       energy         lsg     num-lsg   num-lsh   lsrat    time
      ------- ---------------- --------- --------- --------- ------- --------
       0.0000      -1.16859356 -4.77D-09  0.00D+00  0.00D+00 0.0D+00      3.1

          Number of sigma calls:       10
                       o<<<<< (aa):             0.00
                       o<<<<< (bb):             0.00
                       o<<<<< (ab):             0.02
                       o<<<<< (total)           0.02
                       o<<<<< (aa) ff           0.00
                       o<<<<< (aa) gop          0.00
                       o<<<<< (aa) dot          0.00
                       o<<<<< (ab) str          0.00
                       o<<<<< (ab) gath         0.00
                       o<<<<< (ab) dotab        0.00
                       o<<<<< (ab) scat         0.00
                       o<<<<< (ab) sync         0.00
                       o<<<<< Density           0.00
                       o<<<<< Density one       0.00
                       o<<<<< Density two       0.00
                       o<<<<< Density ab        0.00
                       o<<<<< Spin adapt        0.00
                       o<<<<< Symm adapt        0.00

                       o<<<<< (ab) max sync:      0.00
       1.0000      -1.16859356 -2.82D-09 -2.82D-09  1.95D-09 5.9D-01      3.4

          Number of sigma calls:       10
                       o<<<<< (aa):             0.00
                       o<<<<< (bb):             0.00
                       o<<<<< (ab):             0.01
                       o<<<<< (total)           0.01
                       o<<<<< (aa) ff           0.00
                       o<<<<< (aa) gop          0.00
                       o<<<<< (aa) dot          0.00
                       o<<<<< (ab) str          0.00
                       o<<<<< (ab) gath         0.00
                       o<<<<< (ab) dotab        0.00
                       o<<<<< (ab) scat         0.00
                       o<<<<< (ab) sync         0.00
                       o<<<<< Density           0.00
                       o<<<<< Density one       0.00
                       o<<<<< Density two       0.00
                       o<<<<< Density ab        0.00
                       o<<<<< Spin adapt        0.00
                       o<<<<< Symm adapt        0.00

                       o<<<<< (ab) max sync:      0.00
       2.4502      -1.16859357  8.42D-13  7.59D-13  1.95D-09 1.8D-04      3.6



          %%%%% MacroIteration   8 %%%%%


          Number of sigma calls:        1
                       o<<<<< (aa):             0.00
                       o<<<<< (bb):             0.00
                       o<<<<< (ab):             0.00
                       o<<<<< (total)           0.00
                       o<<<<< (aa) ff           0.00
                       o<<<<< (aa) gop          0.00
                       o<<<<< (aa) dot          0.00
                       o<<<<< (ab) str          0.00
                       o<<<<< (ab) gath         0.00
                       o<<<<< (ab) dotab        0.00
                       o<<<<< (ab) scat         0.00
                       o<<<<< (ab) sync         0.00
                       o<<<<< Density           0.00
                       o<<<<< Density one       0.00
                       o<<<<< Density two       0.00
                       o<<<<< Density ab        0.00
                       o<<<<< Spin adapt        0.00
                       o<<<<< Symm adapt        0.00

                       o<<<<< (ab) max sync:      0.00

           >>>| Valence CI:             -1.813754855935
           >>>| MCSCF energy:           -1.168593565612
           >>>| Gradient norm:          0.157618742D-03
     --- Warning:  311 Hessian diagonals < 0.05 ---

                              ----- Line search ------

        step       energy         lsg     num-lsg   num-lsh   lsrat    time
      ------- ---------------- --------- --------- --------- ------- --------
       0.0000      -1.16859357 -2.08D-09  0.00D+00  0.00D+00 0.0D+00      3.8

          Number of sigma calls:        8
                       o<<<<< (aa):             0.00
                       o<<<<< (bb):             0.00
                       o<<<<< (ab):             0.01
                       o<<<<< (total)           0.01
                       o<<<<< (aa) ff           0.00
                       o<<<<< (aa) gop          0.00
                       o<<<<< (aa) dot          0.00
                       o<<<<< (ab) str          0.00
                       o<<<<< (ab) gath         0.00
                       o<<<<< (ab) dotab        0.00
                       o<<<<< (ab) scat         0.00
                       o<<<<< (ab) sync         0.00
                       o<<<<< Density           0.00
                       o<<<<< Density one       0.00
                       o<<<<< Density two       0.00
                       o<<<<< Density ab        0.00
                       o<<<<< Spin adapt        0.00
                       o<<<<< Symm adapt        0.00

                       o<<<<< (ab) max sync:      0.00
       1.0000      -1.16859357 -1.39D-09 -1.39D-09  6.92D-10 6.7D-01      4.0

          Number of sigma calls:        9
                       o<<<<< (aa):             0.00
                       o<<<<< (bb):             0.00
                       o<<<<< (ab):             0.01
                       o<<<<< (total)           0.01
                       o<<<<< (aa) ff           0.00
                       o<<<<< (aa) gop          0.00
                       o<<<<< (aa) dot          0.00
                       o<<<<< (ab) str          0.00
                       o<<<<< (ab) gath         0.00
                       o<<<<< (ab) dotab        0.00
                       o<<<<< (ab) scat         0.00
                       o<<<<< (ab) sync         0.00
                       o<<<<< Density           0.00
                       o<<<<< Density one       0.00
                       o<<<<< Density two       0.00
                       o<<<<< Density ab        0.00
                       o<<<<< Spin adapt        0.00
                       o<<<<< Symm adapt        0.00

                       o<<<<< (ab) max sync:      0.00
       3.0082      -1.16859357 -1.50D-13 -1.28D-13  6.92D-10 7.2D-05      4.2



          %%%%% MacroIteration   9 %%%%%


          Number of sigma calls:        1
                       o<<<<< (aa):             0.00
                       o<<<<< (bb):             0.00
                       o<<<<< (ab):             0.00
                       o<<<<< (total)           0.00
                       o<<<<< (aa) ff           0.00
                       o<<<<< (aa) gop          0.00
                       o<<<<< (aa) dot          0.00
                       o<<<<< (ab) str          0.00
                       o<<<<< (ab) gath         0.00
                       o<<<<< (ab) dotab        0.00
                       o<<<<< (ab) scat         0.00
                       o<<<<< (ab) sync         0.00
                       o<<<<< Density           0.00
                       o<<<<< Density one       0.00
                       o<<<<< Density two       0.00
                       o<<<<< Density ab        0.00
                       o<<<<< Spin adapt        0.00
                       o<<<<< Symm adapt        0.00

                       o<<<<< (ab) max sync:      0.00

           >>>| Valence CI:             -1.813754859067
           >>>| MCSCF energy:           -1.168593568744
           >>>| Gradient norm:          0.117403614D-03
     --- Warning:  311 Hessian diagonals < 0.05 ---

                              ----- Line search ------

        step       energy         lsg     num-lsg   num-lsh   lsrat    time
      ------- ---------------- --------- --------- --------- ------- --------
       0.0000      -1.16859357 -1.38D-09  0.00D+00  0.00D+00 0.0D+00      4.2

          Number of sigma calls:        9
                       o<<<<< (aa):             0.00
                       o<<<<< (bb):             0.00
                       o<<<<< (ab):             0.00
                       o<<<<< (total)           0.00
                       o<<<<< (aa) ff           0.00
                       o<<<<< (aa) gop          0.00
                       o<<<<< (aa) dot          0.00
                       o<<<<< (ab) str          0.00
                       o<<<<< (ab) gath         0.00
                       o<<<<< (ab) dotab        0.00
                       o<<<<< (ab) scat         0.00
                       o<<<<< (ab) sync         0.00
                       o<<<<< Density           0.00
                       o<<<<< Density one       0.00
                       o<<<<< Density two       0.00
                       o<<<<< Density ab        0.00
                       o<<<<< Spin adapt        0.00
                       o<<<<< Symm adapt        0.00

                       o<<<<< (ab) max sync:      0.00
       1.0000      -1.16859357 -9.51D-10 -9.51D-10  4.31D-10 6.9D-01      4.2

          Number of sigma calls:       10
                       o<<<<< (aa):             0.00
                       o<<<<< (bb):             0.00
                       o<<<<< (ab):             0.01
                       o<<<<< (total)           0.01
                       o<<<<< (aa) ff           0.00
                       o<<<<< (aa) gop          0.00
                       o<<<<< (aa) dot          0.00
                       o<<<<< (ab) str          0.00
                       o<<<<< (ab) gath         0.00
                       o<<<<< (ab) dotab        0.00
                       o<<<<< (ab) scat         0.00
                       o<<<<< (ab) sync         0.00
                       o<<<<< Density           0.00
                       o<<<<< Density one       0.00
                       o<<<<< Density two       0.00
                       o<<<<< Density ab        0.00
                       o<<<<< Spin adapt        0.00
                       o<<<<< Symm adapt        0.00

                       o<<<<< (ab) max sync:      0.00
       3.2042      -1.16859357 -1.38D-13 -1.30D-13  4.31D-10 1.0D-04      4.4



          %%%%% MacroIteration  10 %%%%%


          Number of sigma calls:        1
                       o<<<<< (aa):             0.00
                       o<<<<< (bb):             0.00
                       o<<<<< (ab):             0.00
                       o<<<<< (total)           0.00
                       o<<<<< (aa) ff           0.00
                       o<<<<< (aa) gop          0.00
                       o<<<<< (aa) dot          0.00
                       o<<<<< (ab) str          0.00
                       o<<<<< (ab) gath         0.00
                       o<<<<< (ab) dotab        0.00
                       o<<<<< (ab) scat         0.00
                       o<<<<< (ab) sync         0.00
                       o<<<<< Density           0.00
                       o<<<<< Density one       0.00
                       o<<<<< Density two       0.00
                       o<<<<< Density ab        0.00
                       o<<<<< Spin adapt        0.00
                       o<<<<< Symm adapt        0.00

                       o<<<<< (ab) max sync:      0.00

           >>>| Valence CI:             -1.813754861282
           >>>| MCSCF energy:           -1.168593570959
           >>>| Gradient norm:          0.606688007D-04




     ==============================
            MCSCF Converged
     ==============================



          Canonical Eigenvalues

              1      
    1   -0.5962
    2   -0.0164
    3   -0.0049
    4   -0.0037
    5   -0.0037
    6   -0.0003
    7   -0.0003
    8   -0.0002
    9   -0.0002
   10   -0.0001
   11    0.3819
   12    0.8566
   13    1.0837
   14    1.2593
   15    1.2593
   16    1.3218
   17    1.3218
   18    1.6125
   19    1.9318
   20    1.9318
   21    1.9553
   22    2.4321
   23    2.4321
   24    2.5241
   25    2.5241
   26    2.9465
   27    3.0834
   28    3.1122
   29    3.1122
   30    3.7617
   31    4.2286
   32    4.2286
   33    4.4248
   34    4.4248
   35    4.6871
   36    5.7263
   37    5.7263
   38    6.0409
   39    6.0409
   40    6.6334
   41    6.6334
   42    7.3583
   43    7.3583
   44    7.4168
   45    7.4168
   46    7.4637
   47    7.4796
   48    7.7177
   49    7.7177
   50    8.0372
   51    8.0372
   52    8.1968
   53    8.3267
   54    8.3267
   55    8.7815
   56    8.7815
   57    9.4159
   58    9.4307
   59    9.6393
   60    9.7202
   61    9.7202
   62    9.8162
   63    9.8162
   64   11.8757
   65   11.9109
   66   11.9109
   67   11.9367
   68   14.9814
   69   24.3373
   70   25.7299


          Converged CI vector

   Index           Coefficient          Config. Occupation
         1          0.98924826          1  1
        12         -0.11423373          2  2
        23         -0.05480835          3  3
        34         -0.04691722          4  4
        45         -0.04691722          5  5

          Number of sigma calls:        1
                       o<<<<< (aa):             0.00
                       o<<<<< (bb):             0.00
                       o<<<<< (ab):             0.00
                       o<<<<< (total)           0.00
                       o<<<<< (aa) ff           0.00
                       o<<<<< (aa) gop          0.00
                       o<<<<< (aa) dot          0.00
                       o<<<<< (ab) str          0.00
                       o<<<<< (ab) gath         0.00
                       o<<<<< (ab) dotab        0.00
                       o<<<<< (ab) scat         0.00
                       o<<<<< (ab) sync         0.00
                       o<<<<< Density           0.00
                       o<<<<< Density one       0.00
                       o<<<<< Density two       0.00
                       o<<<<< Density ab        0.00
                       o<<<<< Spin adapt        0.00
                       o<<<<< Symm adapt        0.00

                       o<<<<< (ab) max sync:      0.00



          Natural orbital occupation numbers

              1      
    1    1.9582
    2    0.0261
    3    0.0061
    4    0.0044
    5    0.0044
    6    0.0002
    7    0.0002
    8    0.0002
    9    0.0002
   10    0.0001


          Number of sigma calls:       16
                       o<<<<< (aa):             0.00
                       o<<<<< (bb):             0.00
                       o<<<<< (ab):             0.00
                       o<<<<< (total)           0.00
                       o<<<<< (aa) ff           0.00
                       o<<<<< (aa) gop          0.00
                       o<<<<< (aa) dot          0.00
                       o<<<<< (ab) str          0.00
                       o<<<<< (ab) gath         0.00
                       o<<<<< (ab) dotab        0.00
                       o<<<<< (ab) scat         0.00
                       o<<<<< (ab) sync         0.00
                       o<<<<< Density           0.00
                       o<<<<< Density one       0.00
                       o<<<<< Density two       0.00
                       o<<<<< Density ab        0.00
                       o<<<<< Spin adapt        0.00
                       o<<<<< Symm adapt        0.00

                       o<<<<< (ab) max sync:      0.00


       Final MCSCF results 
       ------------------- 

       Total MCSCF energy =     -1.168593570959
            Gradient norm =      6.1D-05

    CPU time for solution =      4.6s
   Wall time for solution =      6.3s



                        Analysis of MCSCF natural orbitals
                        ----------------------------------

 Vector    1  Occ=1.958189D+00  E=-5.962255D-01  Symmetry=a
              MO Center= -4.0D-16,  6.1D-15,  2.1D-16, r^2= 7.7D-01
   Bfn.  Coefficient  Atom+Function         Bfn.  Coefficient  Atom+Function  
  ----- ------------  ---------------      ----- ------------  ---------------
     3      0.268400  1 H  s                 38      0.268400  2 H  s          
     2      0.175375  1 H  s                 37      0.175375  2 H  s          

 Vector    2  Occ=2.611520D-02  E=-1.637439D-02  Symmetry=a
              MO Center= -1.6D-15,  6.3D-14,  9.7D-16, r^2= 7.8D-01
   Bfn.  Coefficient  Atom+Function         Bfn.  Coefficient  Atom+Function  
  ----- ------------  ---------------      ----- ------------  ---------------
     3      0.670107  1 H  s                 38     -0.670107  2 H  s          
     2      0.550916  1 H  s                 37     -0.550916  2 H  s          

 Vector    3  Occ=6.080410D-03  E=-4.919988D-03  Symmetry=a
              MO Center= -3.6D-15, -1.4D-12,  1.7D-15, r^2= 1.5D+00
   Bfn.  Coefficient  Atom+Function         Bfn.  Coefficient  Atom+Function  
  ----- ------------  ---------------      ----- ------------  ---------------
     2      0.495264  1 H  s                 37      0.495264  2 H  s          
     4     -0.303925  1 H  s                 39     -0.303925  2 H  s          
     3     -0.293386  1 H  s                 38     -0.293386  2 H  s          
     9      0.234679  1 H  py                44     -0.234679  2 H  py         

 Vector    4  Occ=4.402452D-03  E=-3.664181D-03  Symmetry=a
              MO Center=  4.8D-15,  1.1D-14,  2.9D-16, r^2= 7.8D-01
   Bfn.  Coefficient  Atom+Function         Bfn.  Coefficient  Atom+Function  
  ----- ------------  ---------------      ----- ------------  ---------------
    11      0.300761  1 H  px                46      0.300761  2 H  px         
     8      0.292821  1 H  px                43      0.292821  2 H  px         
    21      0.153175  1 H  dxy               56     -0.153175  2 H  dxy        

 Vector    5  Occ=4.402452D-03  E=-3.664181D-03  Symmetry=a
              MO Center= -7.5D-16, -1.9D-14, -3.9D-16, r^2= 7.8D-01
   Bfn.  Coefficient  Atom+Function         Bfn.  Coefficient  Atom+Function  
  ----- ------------  ---------------      ----- ------------  ---------------
    13      0.300761  1 H  pz                48      0.300761  2 H  pz         
    10      0.292821  1 H  pz                45      0.292821  2 H  pz         
    24      0.153175  1 H  dyz               59     -0.153175  2 H  dyz        

 Vector    6  Occ=2.249174D-04  E=-3.201190D-04  Symmetry=a
              MO Center= -2.2D-15, -2.1D-11,  1.4D-15, r^2= 6.7D-01
   Bfn.  Coefficient  Atom+Function         Bfn.  Coefficient  Atom+Function  
  ----- ------------  ---------------      ----- ------------  ---------------
     2      0.700643  1 H  s                 37      0.700643  2 H  s          
     9     -0.649035  1 H  py                44      0.649035  2 H  py         
    12     -0.235329  1 H  py                47      0.235329  2 H  py         
    23     -0.202692  1 H  dyy               58     -0.202692  2 H  dyy        
     1      0.154509  1 H  s                 36      0.154509  2 H  s          

 Vector    7  Occ=1.964875D-04  E=-2.901105D-04  Symmetry=a
              MO Center= -2.8D-13,  6.0D-12,  1.6D-13, r^2= 9.8D-01
   Bfn.  Coefficient  Atom+Function         Bfn.  Coefficient  Atom+Function  
  ----- ------------  ---------------      ----- ------------  ---------------
     2      1.078813  1 H  s                 37     -1.078813  2 H  s          
     9      0.305458  1 H  py                44      0.305458  2 H  py         
    12      0.298583  1 H  py                47      0.298583  2 H  py         
    20     -0.269069  1 H  dxx               25     -0.269069  1 H  dzz        
    55      0.269069  2 H  dxx               60      0.269069  2 H  dzz        

 Vector    8  Occ=1.547809D-04  E=-2.268959D-04  Symmetry=a
              MO Center=  1.2D-14,  9.5D-14,  1.3D-13, r^2= 7.0D-01
   Bfn.  Coefficient  Atom+Function         Bfn.  Coefficient  Atom+Function  
  ----- ------------  ---------------      ----- ------------  ---------------
    10      0.869968  1 H  pz                45     -0.869968  2 H  pz         
    13      0.297548  1 H  pz                48     -0.297548  2 H  pz         

 Vector    9  Occ=1.547809D-04  E=-2.268959D-04  Symmetry=a
              MO Center= -2.7D-13, -1.8D-14,  2.5D-14, r^2= 7.0D-01
   Bfn.  Coefficient  Atom+Function         Bfn.  Coefficient  Atom+Function  
  ----- ------------  ---------------      ----- ------------  ---------------
     8      0.869968  1 H  px                43     -0.869968  2 H  px         
    11      0.297548  1 H  px                46     -0.297548  2 H  px         

 Vector   10  Occ=7.993978D-05  E=-1.479922D-04  Symmetry=a
              MO Center= -2.6D-15, -5.0D-12,  1.7D-16, r^2= 1.2D+00
   Bfn.  Coefficient  Atom+Function         Bfn.  Coefficient  Atom+Function  
  ----- ------------  ---------------      ----- ------------  ---------------
     9      0.663810  1 H  py                44     -0.663810  2 H  py         
     6     -0.504647  1 H  py                41      0.504647  2 H  py         
    32     -0.415958  1 H  fyyy              67      0.415958  2 H  fyyy       
     3     -0.368372  1 H  s                 38     -0.368372  2 H  s          
    20      0.336163  1 H  dxx               25      0.336163  1 H  dzz        

 Vector   11  Occ=0.000000D+00  E= 3.818924D-01  Symmetry=a
              MO Center=  1.1D-13,  6.4D-13, -6.4D-14, r^2= 6.6D+00
   Bfn.  Coefficient  Atom+Function         Bfn.  Coefficient  Atom+Function  
  ----- ------------  ---------------      ----- ------------  ---------------
     4      4.165638  1 H  s                 39     -4.165638  2 H  s          
     3     -1.656638  1 H  s                 38      1.656638  2 H  s          
     2      1.584188  1 H  s                 37     -1.584188  2 H  s          
    12      1.011573  1 H  py                47      1.011573  2 H  py         
    23      0.817705  1 H  dyy               58     -0.817705  2 H  dyy        

 Vector   12  Occ=0.000000D+00  E= 8.566057D-01  Symmetry=a
              MO Center=  1.6D-15,  2.3D-11,  3.7D-16, r^2= 4.9D+00
   Bfn.  Coefficient  Atom+Function         Bfn.  Coefficient  Atom+Function  
  ----- ------------  ---------------      ----- ------------  ---------------
     3      3.462352  1 H  s                 38      3.462352  2 H  s          
     9      2.224510  1 H  py                44     -2.224510  2 H  py         
     4     -1.382233  1 H  s                 39     -1.382233  2 H  s          
    12     -1.183572  1 H  py                47      1.183572  2 H  py         
     2     -0.879927  1 H  s                 37     -0.879927  2 H  s          

 Vector   13  Occ=0.000000D+00  E= 1.083747D+00  Symmetry=a
              MO Center= -1.2D-13,  5.0D-12,  7.3D-14, r^2= 2.8D+00
   Bfn.  Coefficient  Atom+Function         Bfn.  Coefficient  Atom+Function  
  ----- ------------  ---------------      ----- ------------  ---------------
     3     18.203452  1 H  s                 38    -18.203452  2 H  s          
    12      8.587967  1 H  py                47      8.587967  2 H  py         
     2      1.310327  1 H  s                 37     -1.310327  2 H  s          
    23      1.203952  1 H  dyy               58     -1.203952  2 H  dyy        
     9      0.927416  1 H  py                44      0.927416  2 H  py         

 Vector   14  Occ=0.000000D+00  E= 1.259268D+00  Symmetry=a
              MO Center=  8.9D-16,  3.7D-12,  1.1D-14, r^2= 2.7D+00
   Bfn.  Coefficient  Atom+Function         Bfn.  Coefficient  Atom+Function  
  ----- ------------  ---------------      ----- ------------  ---------------
    10      5.015810  1 H  pz                45     -5.015810  2 H  pz         
    13     -2.592395  1 H  pz                48      2.592395  2 H  pz         
    33     -2.084380  1 H  fyyz              68      2.084380  2 H  fyyz       
    28     -1.880566  1 H  fxxz              35     -1.880566  1 H  fzzz       
    63      1.880566  2 H  fxxz              70      1.880566  2 H  fzzz       

 Vector   15  Occ=0.000000D+00  E= 1.259268D+00  Symmetry=a
              MO Center= -7.8D-15,  2.6D-12,  6.3D-16, r^2= 2.7D+00
   Bfn.  Coefficient  Atom+Function         Bfn.  Coefficient  Atom+Function  
  ----- ------------  ---------------      ----- ------------  ---------------
     8      5.015810  1 H  px                43     -5.015810  2 H  px         
    11     -2.592395  1 H  px                46      2.592395  2 H  px         
    29     -2.084380  1 H  fxyy              64      2.084380  2 H  fxyy       
    26     -1.880566  1 H  fxxx              31     -1.880566  1 H  fxzz       
    61      1.880566  2 H  fxxx              66      1.880566  2 H  fxzz       

 Vector   16  Occ=0.000000D+00  E= 1.321764D+00  Symmetry=a
              MO Center=  1.1D-16, -3.7D-12, -1.8D-15, r^2= 2.1D+00
   Bfn.  Coefficient  Atom+Function         Bfn.  Coefficient  Atom+Function  
  ----- ------------  ---------------      ----- ------------  ---------------
    10      5.079677  1 H  pz                45      5.079677  2 H  pz         
    28     -2.008702  1 H  fxxz              35     -2.008702  1 H  fzzz       
    63     -2.008702  2 H  fxxz              70     -2.008702  2 H  fzzz       
    33     -1.996559  1 H  fyyz              68     -1.996559  2 H  fyyz       
     7     -1.349548  1 H  pz                42     -1.349548  2 H  pz         

 Vector   17  Occ=0.000000D+00  E= 1.321764D+00  Symmetry=a
              MO Center= -1.5D-15, -2.6D-12, -2.6D-16, r^2= 2.1D+00
   Bfn.  Coefficient  Atom+Function         Bfn.  Coefficient  Atom+Function  
  ----- ------------  ---------------      ----- ------------  ---------------
     8      5.079677  1 H  px                43      5.079677  2 H  px         
    26     -2.008702  1 H  fxxx              31     -2.008702  1 H  fxzz       
    61     -2.008702  2 H  fxxx              66     -2.008702  2 H  fxzz       
    29     -1.996559  1 H  fxyy              64     -1.996559  2 H  fxyy       
     5     -1.349548  1 H  px                40     -1.349548  2 H  px         

 Vector   18  Occ=0.000000D+00  E= 1.612483D+00  Symmetry=a
              MO Center=  4.8D-15, -1.4D-11, -8.4D-17, r^2= 2.8D+00
   Bfn.  Coefficient  Atom+Function         Bfn.  Coefficient  Atom+Function  
  ----- ------------  ---------------      ----- ------------  ---------------
     9      4.050681  1 H  py                44     -4.050681  2 H  py         
     3     -2.794329  1 H  s                 38     -2.794329  2 H  s          
    12     -1.856861  1 H  py                47      1.856861  2 H  py         
    32     -1.664652  1 H  fyyy              67      1.664652  2 H  fyyy       
    27     -1.562207  1 H  fxxy              34     -1.562207  1 H  fyzz       

 Vector   19  Occ=0.000000D+00  E= 1.931807D+00  Symmetry=a
              MO Center=  7.6D-17,  1.2D-14, -6.0D-16, r^2= 9.3D-01
   Bfn.  Coefficient  Atom+Function         Bfn.  Coefficient  Atom+Function  
  ----- ------------  ---------------      ----- ------------  ---------------
    22      1.099736  1 H  dxz               57      1.099736  2 H  dxz        
    16     -0.167542  1 H  dxz               51     -0.167542  2 H  dxz        

 Vector   20  Occ=0.000000D+00  E= 1.931807D+00  Symmetry=a
              MO Center= -9.6D-16,  1.3D-14, -9.4D-16, r^2= 9.3D-01
   Bfn.  Coefficient  Atom+Function         Bfn.  Coefficient  Atom+Function  
  ----- ------------  ---------------      ----- ------------  ---------------
    20      0.549868  1 H  dxx               25     -0.549868  1 H  dzz        
    55      0.549868  2 H  dxx               60     -0.549868  2 H  dzz        


 Wrote Lagrangian and 1- and 2-particle density matrices to ./H2.mcpdm


     Multipole analysis of the density
     ---------------------------------

     L   x y z        total        nuclear
     -   - - -        -----        -------
     0   0 0 0     -0.000000      2.000000

     1   1 0 0      0.000000      0.000000
     1   0 1 0     -0.000000      0.000000
     1   0 0 1     -0.000000      0.000000

     2   2 0 0     -1.606269      0.000000
     2   1 1 0      0.000000      0.000000
     2   1 0 1     -0.000000      0.000000
     2   0 2 0     -1.085945      1.201250
     2   0 1 1     -0.000000      0.000000
     2   0 0 2     -1.606269      0.000000


  Mulliken analysis of the total density
  --------------------------------------

    Atom       Charge   Shell Charges
 -----------   ------   -------------------------------------------------------
    1 H    1     1.00   0.06  0.27  0.48  0.16  0.00  0.01  0.01  0.00  0.00 -0.00
    2 H    1     1.00   0.06  0.27  0.48  0.16  0.00  0.01  0.01  0.00  0.00 -0.00

    Mulliken analysis of the active space density
    ---------------------------------------------

    Atom       Charge   Shell Charges
 -----------   ------   -------------------------------------------------------
    1 H    1     1.00   0.06  0.27  0.48  0.16  0.00  0.01  0.01  0.00  0.00 -0.00
    2 H    1     1.00   0.06  0.27  0.48  0.16  0.00  0.01  0.01  0.00  0.00 -0.00

 Parallel integral file used      20 records with       0 large values


 Task  times  cpu:        4.6s     wall:        6.3s


                                NWChem Input Module
                                -------------------


                                 NWChem SCF Module
                                 -----------------


                                        H2



  ao basis        = "ao basis"
  functions       =    70
  atoms           =     2
  closed shells   =     1
  open shells     =     0
  charge          =   0.00
  wavefunction    = RHF 
  input vectors   = ./H2.mos
  output vectors  = ./H2-1.55.mos
  use symmetry    = F
  symmetry adapt  = F


 Summary of "ao basis" -> "ao basis" (cartesian)
 ------------------------------------------------------------------------------
       Tag                 Description            Shells   Functions and Types
 ---------------- ------------------------------  ------  ---------------------
 H                          cc-pVQZ                 10       35   4s3p2d1f



 Forming initial guess at       6.3s


 Loading old vectors from job with title :

H2


 Starting SCF solution at       6.3s



 ----------------------------------------------
         Quadratically convergent ROHF

 Convergence threshold     :          1.000E-04
 Maximum no. of iterations :           30
 Final Fock-matrix accuracy:          1.000E-07
 ----------------------------------------------


 Integral file          = ./H2.aoints.0
 Record size in doubles =  65536        No. of integs per rec  =  43688
 Max. records in memory =     99        Max. records in file   = 280258
 No. of bits per label  =      8        No. of bits per value  =     64


 #quartets = 2.216D+04 #integrals = 8.606D+05 #direct =  0.0% #cached =100.0%



       Final RHF  results 
       ------------------ 

         Total SCF energy =     -1.128806015038
      One-electron energy =     -2.409816337381
      Two-electron energy =      0.635849032020
 Nuclear repulsion energy =      0.645161290323

        Time for solution =      0.0s


             Final eigenvalues
             -----------------

              1      
    1   -0.5962
    2   -0.0164
    3   -0.0049
    4   -0.0037
    5   -0.0037
    6   -0.0003
    7   -0.0003
    8   -0.0002
    9   -0.0002
   10   -0.0001
   11    0.3819

                       ROHF Final Molecular Orbital Analysis
                       -------------------------------------

 Vector    1  Occ=2.000000D+00  E=-5.962255D-01
              MO Center= -4.0D-16,  6.1D-15,  2.1D-16, r^2= 7.7D-01
   Bfn.  Coefficient  Atom+Function         Bfn.  Coefficient  Atom+Function  
  ----- ------------  ---------------      ----- ------------  ---------------
     3      0.268400  1 H  s                 38      0.268400  2 H  s          
     2      0.175375  1 H  s                 37      0.175375  2 H  s          

 Vector    2  Occ=0.000000D+00  E=-1.637439D-02
              MO Center= -1.6D-15,  6.3D-14,  9.7D-16, r^2= 7.8D-01
   Bfn.  Coefficient  Atom+Function         Bfn.  Coefficient  Atom+Function  
  ----- ------------  ---------------      ----- ------------  ---------------
     3      0.670107  1 H  s                 38     -0.670107  2 H  s          
     2      0.550916  1 H  s                 37     -0.550916  2 H  s          

 Vector    3  Occ=0.000000D+00  E=-4.919988D-03
              MO Center= -3.6D-15, -1.4D-12,  1.7D-15, r^2= 1.5D+00
   Bfn.  Coefficient  Atom+Function         Bfn.  Coefficient  Atom+Function  
  ----- ------------  ---------------      ----- ------------  ---------------
     2      0.495264  1 H  s                 37      0.495264  2 H  s          
     4     -0.303925  1 H  s                 39     -0.303925  2 H  s          
     3     -0.293386  1 H  s                 38     -0.293386  2 H  s          
     9      0.234679  1 H  py                44     -0.234679  2 H  py         

 Vector    4  Occ=0.000000D+00  E=-3.664181D-03
              MO Center=  4.8D-15,  1.1D-14,  2.9D-16, r^2= 7.8D-01
   Bfn.  Coefficient  Atom+Function         Bfn.  Coefficient  Atom+Function  
  ----- ------------  ---------------      ----- ------------  ---------------
    11      0.300761  1 H  px                46      0.300761  2 H  px         
     8      0.292821  1 H  px                43      0.292821  2 H  px         
    21      0.153175  1 H  dxy               56     -0.153175  2 H  dxy        

 Vector    5  Occ=0.000000D+00  E=-3.664181D-03
              MO Center= -7.5D-16, -1.9D-14, -3.9D-16, r^2= 7.8D-01
   Bfn.  Coefficient  Atom+Function         Bfn.  Coefficient  Atom+Function  
  ----- ------------  ---------------      ----- ------------  ---------------
    13      0.300761  1 H  pz                48      0.300761  2 H  pz         
    10      0.292821  1 H  pz                45      0.292821  2 H  pz         
    24      0.153175  1 H  dyz               59     -0.153175  2 H  dyz        

 Vector    6  Occ=0.000000D+00  E=-3.201190D-04
              MO Center= -2.2D-15, -2.1D-11,  1.4D-15, r^2= 6.7D-01
   Bfn.  Coefficient  Atom+Function         Bfn.  Coefficient  Atom+Function  
  ----- ------------  ---------------      ----- ------------  ---------------
     2      0.700643  1 H  s                 37      0.700643  2 H  s          
     9     -0.649035  1 H  py                44      0.649035  2 H  py         
    12     -0.235329  1 H  py                47      0.235329  2 H  py         
    23     -0.202692  1 H  dyy               58     -0.202692  2 H  dyy        
     1      0.154509  1 H  s                 36      0.154509  2 H  s          

 Vector    7  Occ=0.000000D+00  E=-2.901105D-04
              MO Center= -2.8D-13,  6.0D-12,  1.6D-13, r^2= 9.8D-01
   Bfn.  Coefficient  Atom+Function         Bfn.  Coefficient  Atom+Function  
  ----- ------------  ---------------      ----- ------------  ---------------
     2      1.078813  1 H  s                 37     -1.078813  2 H  s          
     9      0.305458  1 H  py                44      0.305458  2 H  py         
    12      0.298583  1 H  py                47      0.298583  2 H  py         
    20     -0.269069  1 H  dxx               25     -0.269069  1 H  dzz        
    55      0.269069  2 H  dxx               60      0.269069  2 H  dzz        

 Vector    8  Occ=0.000000D+00  E=-2.268959D-04
              MO Center=  1.2D-14,  9.5D-14,  1.3D-13, r^2= 7.0D-01
   Bfn.  Coefficient  Atom+Function         Bfn.  Coefficient  Atom+Function  
  ----- ------------  ---------------      ----- ------------  ---------------
    10      0.869968  1 H  pz                45     -0.869968  2 H  pz         
    13      0.297548  1 H  pz                48     -0.297548  2 H  pz         

 Vector    9  Occ=0.000000D+00  E=-2.268959D-04
              MO Center= -2.7D-13, -1.8D-14,  2.5D-14, r^2= 7.0D-01
   Bfn.  Coefficient  Atom+Function         Bfn.  Coefficient  Atom+Function  
  ----- ------------  ---------------      ----- ------------  ---------------
     8      0.869968  1 H  px                43     -0.869968  2 H  px         
    11      0.297548  1 H  px                46     -0.297548  2 H  px         

 Vector   10  Occ=0.000000D+00  E=-1.479922D-04
              MO Center= -2.6D-15, -5.0D-12,  1.7D-16, r^2= 1.2D+00
   Bfn.  Coefficient  Atom+Function         Bfn.  Coefficient  Atom+Function  
  ----- ------------  ---------------      ----- ------------  ---------------
     9      0.663810  1 H  py                44     -0.663810  2 H  py         
     6     -0.504647  1 H  py                41      0.504647  2 H  py         
    32     -0.415958  1 H  fyyy              67      0.415958  2 H  fyyy       
     3     -0.368372  1 H  s                 38     -0.368372  2 H  s          
    20      0.336163  1 H  dxx               25      0.336163  1 H  dzz        

 Vector   11  Occ=0.000000D+00  E= 3.818924D-01
              MO Center=  1.1D-13,  6.4D-13, -6.4D-14, r^2= 6.6D+00
   Bfn.  Coefficient  Atom+Function         Bfn.  Coefficient  Atom+Function  
  ----- ------------  ---------------      ----- ------------  ---------------
     4      4.165638  1 H  s                 39     -4.165638  2 H  s          
     3     -1.656638  1 H  s                 38      1.656638  2 H  s          
     2      1.584188  1 H  s                 37     -1.584188  2 H  s          
    12      1.011573  1 H  py                47      1.011573  2 H  py         
    23      0.817705  1 H  dyy               58     -0.817705  2 H  dyy        

 Vector   12  Occ=0.000000D+00  E= 8.566057D-01
              MO Center=  1.6D-15,  2.3D-11,  3.7D-16, r^2= 4.9D+00
   Bfn.  Coefficient  Atom+Function         Bfn.  Coefficient  Atom+Function  
  ----- ------------  ---------------      ----- ------------  ---------------
     3      3.462352  1 H  s                 38      3.462352  2 H  s          
     9      2.224510  1 H  py                44     -2.224510  2 H  py         
     4     -1.382233  1 H  s                 39     -1.382233  2 H  s          
    12     -1.183572  1 H  py                47      1.183572  2 H  py         
     2     -0.879927  1 H  s                 37     -0.879927  2 H  s          


 center of mass
 --------------
 x =   0.00000000 y =   0.00000000 z =   0.00000000

 moments of inertia (a.u.)
 ------------------
           1.210649781250           0.000000000000           0.000000000000
           0.000000000000           0.000000000000           0.000000000000
           0.000000000000           0.000000000000           1.210649781250

  Mulliken analysis of the total density
  --------------------------------------

    Atom       Charge   Shell Charges
 -----------   ------   -------------------------------------------------------
    1 H    1     1.00   0.06  0.27  0.49  0.16  0.00  0.01  0.01  0.00  0.00 -0.00
    2 H    1     1.00   0.06  0.27  0.49  0.16  0.00  0.01  0.01  0.00  0.00 -0.00

       Multipole analysis of the density wrt the origin
       ------------------------------------------------

     L   x y z        total         open         nuclear
     -   - - -        -----         ----         -------
     0   0 0 0     -0.000000      0.000000      2.000000

     1   1 0 0      0.000000      0.000000      0.000000
     1   0 1 0     -0.000000      0.000000      0.000000
     1   0 0 1     -0.000000      0.000000      0.000000

     2   2 0 0     -1.607407      0.000000      0.000000
     2   1 1 0      0.000000      0.000000      0.000000
     2   1 0 1     -0.000000      0.000000      0.000000
     2   0 2 0     -1.065545      0.000000      1.201250
     2   0 1 1     -0.000000      0.000000      0.000000
     2   0 0 2     -1.607407      0.000000      0.000000


 Parallel integral file used      20 records with       0 large values

                   NWChem Extensible Many-Electron Theory Module
                   ---------------------------------------------

              ======================================================
                   This portion of the program was automatically
                  generated by a Tensor Contraction Engine (TCE).
                  The development of this portion of the program
                 and TCE was supported by US Department of Energy,
                Office of Science, Office of Basic Energy Science.
                      TCE is a product of Battelle and PNNL.
              Please cite: S.Hirata, J.Phys.Chem.A 107, 9887 (2003).
              ======================================================

                                        H2


            General Information
            -------------------
      Number of processors :     1
         Wavefunction type : Restricted Hartree-Fock
          No. of electrons :     2
           Alpha electrons :     1
            Beta electrons :     1
           No. of orbitals :   140
            Alpha orbitals :    70
             Beta orbitals :    70
        Alpha frozen cores :     0
         Beta frozen cores :     0
     Alpha frozen virtuals :     0
      Beta frozen virtuals :     0
         Spin multiplicity : singlet 
    Number of AO functions :    70
       Number of AO shells :    20
        Use of symmetry is : off
      Symmetry adaption is : off
         Schwarz screening : 0.10D-09

          Correlation Information
          -----------------------
          Calculation type : Coupled-cluster singles & doubles                           
   Perturbative correction : none                                                        
            Max iterations :      300
        Residual threshold : 0.10D-06
     T(0) DIIS level shift : 0.80D+00
     L(0) DIIS level shift : 0.00D+00
     T(1) DIIS level shift : 0.00D+00
     L(1) DIIS level shift : 0.00D+00
     T(R) DIIS level shift : 0.00D+00
     T(I) DIIS level shift : 0.00D+00
   CC-T/L Amplitude update :  5-th order DIIS
                I/O scheme : Global Array Library
        L-threshold :  0.10D-06
        EOM-threshold :  0.10D-06
 no EOMCCSD initial starts read in
 TCE RESTART OPTIONS
 READ_INT:   F
 WRITE_INT:  F
 READ_TA:    F
 WRITE_TA:   F
 READ_XA:    F
 WRITE_XA:   F
 READ_IN3:   F
 WRITE_IN3:  F
 SLICE:      F
 D4D5:       F
 quantumc:   F
 qrotation:  F
 pwtce:      F
 qducc:      T
 nacto:                         0
 nrotv:                         0
 nrot:                          0

            Memory Information
            ------------------
          Available GA space size is    1610607836 doubles
          Available MA space size is    1610610644 doubles

 Maximum block size        32 doubles

 tile_dim =     23

 Block   Spin    Irrep     Size     Offset   Alpha
 -------------------------------------------------
   1    alpha     a      1 doubles       0       1
   2    beta      a      1 doubles       1       1
   3    alpha     a     23 doubles       2       3
   4    alpha     a     23 doubles      25       4
   5    alpha     a     23 doubles      48       5
   6    beta      a     23 doubles      71       3
   7    beta      a     23 doubles      94       4
   8    beta      a     23 doubles     117       5

 Global array virtual files algorithm will be used

 Parallel file system coherency ......... OK

 Integral file          = ./H2.aoints.0
 Record size in doubles =  65536        No. of integs per rec  =  43688
 Max. records in memory =     99        Max. records in file   = 280258
 No. of bits per label  =      8        No. of bits per value  =     64


 #quartets = 2.216D+04 #integrals = 8.606D+05 #direct =  0.0% #cached =100.0%


 Fock matrix recomputed
 1-e file size   =             4900
 1-e file name   = ./H2.f1
 Cpu & wall time / sec            0.1            0.1
 4-electron integrals stored in orbital form

 v2    file size   =          6102085
 4-index algorithm nr.  13 is used
 imaxsize =       30
 imaxsize ichop =        0
 Cpu & wall time / sec            2.1            2.1
 T1-number-of-tasks                    3

 t1 file size   =               69
 t1 file name   = ./H2.t1
 t1 file handle =       -998
 T2-number-of-boxes                   15

 t2 file size   =             7935
 t2 file name   = ./H2.t2
 t2 file handle =       -996
CCSD iterations
 ---------------------------------------------------------
 Iter          Residuum       Correlation     Cpu    Wall 
 ---------------------------------------------------------
NEW TASK SCHEDULING
CCSD_T1_NTS --- OK
CCSD_T2_NTS --- OK
    1   0.9724519529540  -0.0897369685215     0.1     0.1
    2   1.4298505526322  -0.0067197757728     0.1     0.1
    3   2.4467652891798  -0.0911108774121     0.0     0.1
    4   4.5130531686083   0.0333046465285     0.1     0.1
    5   8.6678885771150  -0.1621998592288     0.1     0.1
 MICROCYCLE DIIS UPDATE:                    5                    5
    6   0.0274486967658  -0.0411731471665     0.1     0.1
    7   0.0452864102804  -0.0423688682979     0.1     0.1
    8   0.0815378896846  -0.0403667414484     0.1     0.1
    9   0.1507221447596  -0.0434950007076     0.1     0.1
   10   0.2796046713287  -0.0380557244126     0.1     0.1
 MICROCYCLE DIIS UPDATE:                   10                    5
   11   0.0015223117144  -0.0414781155019     0.0     0.1
   12   0.0009872124025  -0.0415501871561     0.1     0.1
   13   0.0012463203238  -0.0415512613941     0.1     0.1
   14   0.0023887279935  -0.0415979824840     0.1     0.1
   15   0.0050338214410  -0.0415264423348     0.1     0.1
 MICROCYCLE DIIS UPDATE:                   15                    5
   16   0.0002258079603  -0.0415914415405     0.1     0.1
   17   0.0001657808484  -0.0415917552921     0.1     0.1
   18   0.0001935924639  -0.0415873534943     0.1     0.1
   19   0.0003339453448  -0.0415913571694     0.1     0.1
   20   0.0006183523527  -0.0415856374325     0.1     0.1
[...]
    9    1    2    4        0.0474272537
    9    1    2    5        0.0006295883
    9    2    2    9        0.1023611611
    9    3    2    4        0.0042795676
    9    3    2    5        0.0000568105
    9    4    2    1        0.1224464999
    9    4    2    3        0.0152000269
    9    4    2    6        0.0901311516
    9    4    2   10        0.0207468074
    9    5    2    1        0.0016254553
    9    5    2    3        0.0002017776
    9    5    2    6        0.0011964748
    9    5    2   10        0.0002754101
    9    6    2    4        0.0162138733
    9    6    2    5        0.0002152363
    9    7    2    9        0.0124478858
    9    9    2    2        0.6312805216
    9    9    2    7        0.1249133018
    9   10    2    4        0.0190465485
    9   10    2    5        0.0002528395
    9    1    3    9        0.0074322105
    9    2    3    4        0.0070090791
    9    2    3    5        0.0000930443
    9    3    3    9        0.0150157445
    9    4    3    2        0.0152000269
    9    4    3    7        0.0924181300
    9    5    3    2        0.0002017776
    9    5    3    7        0.0012268341
    9    6    3    9        0.0015693517
    9    7    3    4        0.0219326101
    9    7    3    5        0.0002911515
    9    9    3    1        0.1374482353
    9    9    3    3        0.5287495767
    9    9    3    6       -0.0232661999
    9    9    3   10       -0.1326319153
    9   10    3    9       -0.0003263524
    9    1    4    2        0.0473763236
    9    1    4    7        0.0059129961
    9    2    4    1        0.0931233625
    9    2    4    3        0.0070090791
    9    2    4    6       -0.0224377637
    9    2    4   10        0.0380333092
    9    3    4    2        0.0042795676
    9    3    4    7        0.0142692105
    9    4    4    8       -0.0013788890
    9    4    4    9        0.1192806836
    9    5    4    8        0.0153898591
    9    5    4    9        0.0013788890
    9    6    4    2        0.0162138733
    9    6    4    7        0.0012166424
    9    7    4    1        0.0127069852
    9    7    4    3        0.0219326101
    9    7    4    6       -0.0035151808
    9    7    4   10       -0.0005659581
    9    8    4    4       -0.0006633727
    9    8    4    5        0.0249817262
    9    9    4    4        0.6100976135
    9    9    4    5        0.0006633727
    9   10    4    2        0.0190465485
    9   10    4    7       -0.0009102100
    9    1    5    2        0.0006289122
    9    1    5    7        0.0000784940
    9    2    5    1        0.0012361959
    9    2    5    3        0.0000930443
    9    2    5    6       -0.0002978573
    9    2    5   10        0.0005048853
    9    3    5    2        0.0000568105
    9    3    5    7        0.0001894212
    9    4    5    8        0.0884643563
    9    4    5    9        0.0013788890
    9    5    5    8        0.0013788890
    9    5    5    9        0.0154264681
    9    6    5    2        0.0002152363
    9    6    5    7        0.0000161507
    9    7    5    1        0.0001686829
    9    7    5    3        0.0002911515
    9    7    5    6       -0.0000466634
    9    7    5   10       -0.0000075130
    9    8    5    4        0.0249817262
    9    8    5    5        0.0006633727
    9    9    5    4        0.0006633727
    9    9    5    5        0.5601341611
    9   10    5    2        0.0002528395
    9   10    5    7       -0.0000120829
    9    1    6    9        0.0218922645
    9    2    6    4       -0.0224377637
    9    2    6    5       -0.0002978573
    9    3    6    9        0.0015693517
    9    4    6    2        0.0901311516
    9    4    6    7        0.0177869668
    9    5    6    2        0.0011964748
    9    5    6    7        0.0002361188
    9    6    6    9        0.0235777689
    9    7    6    4       -0.0035151808
    9    7    6    5       -0.0000466634
    9    9    6    1        0.0314053102
    9    9    6    3       -0.0232661999
    9    9    6    6        0.6310401332
    9    9    6   10        0.0165710389
    9   10    6    9        0.0078760152
    9    1    7    4        0.0059550043
    9    1    7    5        0.0000790516
    9    2    7    9        0.0124478858
    9    3    7    4        0.0142692105
    9    3    7    5        0.0001894212
    9    4    7    1        0.0303710962
    9    4    7    3        0.0924181300
    9    4    7    6        0.0177869668
    9    4    7   10       -0.0162759929
    9    5    7    1        0.0004031708
    9    5    7    3        0.0012268341
    9    5    7    6        0.0002361188
    9    5    7   10       -0.0002160609
    9    6    7    4        0.0012166424
    9    6    7    5        0.0000161507
    9    7    7    9        0.0276996990
    9    9    7    2        0.1249133018
    9    9    7    7        0.6066019930
    9   10    7    4       -0.0009102100
    9   10    7    5       -0.0000120829
    9    4    8    4       -0.0013788890
    9    4    8    5        0.0884643563
    9    5    8    4        0.0153898591
    9    5    8    5        0.0013788890
    9    8    8    9        0.0297038176
    9    9    8    8        0.6023493886
    9    1    9    1        0.0611253513
    9    1    9    3        0.0073590109
    9    1    9    6        0.0218894135
    9    1    9   10        0.0245128150
    9    2    9    2        0.1023611611
    9    2    9    7        0.0124478858
    9    3    9    1        0.0073590109
    9    3    9    3        0.0150157445
    9    3    9    6        0.0015693517
    9    3    9   10       -0.0003263524
    9    4    9    4        0.1192806836
    9    4    9    5        0.0013788890
    9    5    9    4        0.0013788890
    9    5    9    5        0.0154264681
    9    6    9    1        0.0218894135
    9    6    9    3        0.0015693517
    9    6    9    6        0.0235777689
    9    6    9   10        0.0078760152
    9    7    9    2        0.0124478858
    9    7    9    7        0.0276996990
    9    8    9    8        0.0297038176
    9    9    9    9        0.6617570238
    9   10    9    1        0.0245128150
    9   10    9    3       -0.0003263524
    9   10    9    6        0.0078760152
    9   10    9   10        0.0172263374
    9    1   10    9        0.0244880395
    9    2   10    4        0.0380333092
    9    2   10    5        0.0005048853
    9    3   10    9       -0.0003263524
    9    4   10    2        0.0207468074
    9    4   10    7       -0.0162759929
    9    5   10    2        0.0002754101
    9    5   10    7       -0.0002160609
    9    6   10    9        0.0078760152
    9    7   10    4       -0.0005659581
    9    7   10    5       -0.0000075130
    9    9   10    1        0.0153898573
    9    9   10    3       -0.1326319153
    9    9   10    6        0.0165710389
    9    9   10   10        0.5828219721
    9   10   10    9        0.0172263374
   10    1    1    1       -0.0134029675
   10    1    1    3       -0.0458518440
   10    1    1    6        0.0061879539
   10    1    1   10        0.0577335607
   10    2    1    2        0.0172268441
   10    2    1    7       -0.0099344881
   10    3    1    1       -0.1701704456
   10    3    1    3       -0.1200172168
   10    3    1    6        0.0162511731
   10    3    1   10        0.0603162656
   10    4    1    4        0.0461814886
   10    5    1    5        0.0461814886
   10    6    1    1        0.0211190258
   10    6    1    3        0.0246476342
   10    6    1    6        0.0140972676
   10    6    1   10       -0.0239889571
   10    7    1    2       -0.0306120915
   10    7    1    7       -0.0469541912
   10    8    1    8        0.0245128150
   10    9    1    9        0.0245128150
   10   10    1    1        0.6294089513
   10   10    1    3        0.2034014022
   10   10    1    6       -0.0221046693
   10   10    1   10       -0.0645456841
   10    1    2    2        0.0007330304
   10    1    2    7       -0.0348513684
   10    2    2    1        0.0172209498
   10    2    2    3       -0.0070314637
   10    2    2    6        0.0186210633
   10    2    2   10        0.0206350186
   10    3    2    2       -0.1399500579
   10    3    2    7       -0.0999016667
   10    4    2    8       -0.0005048853
   10    4    2    9        0.0380333092
   10    5    2    8        0.0380333092
   10    5    2    9        0.0005048853
   10    6    2    2        0.0280462903
   10    6    2    7        0.0160166228
   10    7    2    1       -0.0306441584
   10    7    2    3       -0.0343708507
   10    7    2    6       -0.0176997719
   10    7    2   10        0.0142723439
   10    8    2    4       -0.0002528395
   10    8    2    5        0.0190465485
   10    9    2    4        0.0190465485
   10    9    2    5        0.0002528395
   10   10    2    2        0.5863797299
   10   10    2    7        0.1651588132
   10    1    3    1       -0.0449361944
   10    1    3    3       -0.0458002460
   10    1    3    6        0.0153662246
   10    1    3   10        0.0603162656
   10    2    3    2       -0.0070314637
   10    2    3    7       -0.0059859626
   10    3    3    1       -0.1200153566
   10    3    3    3       -0.1699411517
   10    3    3    6        0.0298891217
   10    3    3   10        0.1394219544
   10    4    3    4       -0.0034380415
   10    5    3    5       -0.0034380415
   10    6    3    1        0.0246436614
   10    6    3    3        0.0280480992
   10    6    3    6       -0.0104023557
   10    6    3   10       -0.0310339534
   10    7    3    2       -0.0343708507
   10    7    3    7       -0.0409919422
   10    8    3    8       -0.0003263524
   10    9    3    9       -0.0003263524
   10   10    3    1        0.2034014022
   10   10    3    3        0.5906348180
   10   10    3    6       -0.0536063297
   10   10    3   10       -0.2303910235
   10    1    4    4        0.0148967752
   10    2    4    8       -0.0002754101
   10    2    4    9        0.0207468074
   10    3    4    4       -0.1334414438
   10    4    4    1        0.0461119224
   10    4    4    3       -0.0034380415
   10    4    4    6       -0.0245457822
   10    4    4   10        0.0344370200
   10    6    4    4       -0.0008332847
   10    7    4    8        0.0002160609
   10    7    4    9       -0.0162759929
   10    8    4    2       -0.0002528395
   10    8    4    7        0.0000120829
   10    9    4    2        0.0190465485
   10    9    4    7       -0.0009102100
   10   10    4    4        0.5795408321
   10    1    5    5        0.0148967752
   10    2    5    8        0.0207468074
   10    2    5    9        0.0002754101
   10    3    5    5       -0.1334414438
   10    5    5    1        0.0461119224
   10    5    5    3       -0.0034380415
   10    5    5    6       -0.0245457822
   10    5    5   10        0.0344370200
   10    6    5    5       -0.0008332847
   10    7    5    8       -0.0162759929
   10    7    5    9       -0.0002160609
   10    8    5    2        0.0190465485
   10    8    5    7       -0.0009102100
   10    9    5    2        0.0002528395
   10    9    5    7       -0.0000120829
   10   10    5    5        0.5795408321
   10    1    6    1        0.0064868959
   10    1    6    3        0.0153500148
   10    1    6    6        0.0035203445
   10    1    6   10       -0.0239889571
   10    2    6    2        0.0186210633
   10    2    6    7       -0.0013598243
   10    3    6    1        0.0162309904
   10    3    6    3        0.0298891217
   10    3    6    6       -0.1498458135
   10    3    6   10       -0.0310339534
   10    4    6    4       -0.0245457822
   10    5    6    5       -0.0245457822
   10    6    6    1        0.0140664668
   10    6    6    3       -0.0104023557
   10    6    6    6        0.0262765780
   10    6    6   10        0.0254933035
   10    7    6    2       -0.0176997719
   10    7    6    7       -0.0209171376
   10    8    6    8        0.0078760152
   10    9    6    9        0.0078760152
   10   10    6    1       -0.0221046693
   10   10    6    3       -0.0536063297
   10   10    6    6        0.6067866155
   10   10    6   10        0.0386670997
   10    1    7    2       -0.0347993740
   10    1    7    7       -0.0436237094
   10    2    7    1       -0.0099145606
   10    2    7    3       -0.0059859626
   10    2    7    6       -0.0013598243
   10    2    7   10        0.0142723439
   10    3    7    2       -0.0999016667
   10    3    7    7       -0.1832366345
   10    4    7    8        0.0000075130
   10    4    7    9       -0.0005659581
   10    5    7    8       -0.0005659581
   10    5    7    9       -0.0000075130
   10    6    7    2        0.0160166228
   10    6    7    7        0.0278863894
   10    7    7    1       -0.0469778965
   10    7    7    3       -0.0409919422
   10    7    7    6       -0.0209171376
   10    7    7   10        0.0442006423
   10    8    7    4        0.0000120829
   10    8    7    5       -0.0009102100
   10    9    7    4       -0.0009102100
   10    9    7    5       -0.0000120829
   10   10    7    2        0.1651588132
   10   10    7    7        0.6303638368
   10    1    8    8        0.0153898573
   10    2    8    4       -0.0002754101
   10    2    8    5        0.0207468074
   10    3    8    8       -0.1326319153
   10    4    8    2       -0.0005048853
   10    4    8    7        0.0000075130
   10    5    8    2        0.0380333092
   10    5    8    7       -0.0005659581
   10    6    8    8        0.0165710389
   10    7    8    4        0.0002160609
   10    7    8    5       -0.0162759929
   10    8    8    1        0.0244880395
   10    8    8    3       -0.0003263524
   10    8    8    6        0.0078760152
   10    8    8   10        0.0172263374
   10   10    8    8        0.5828219721
   10    1    9    9        0.0153898573
   10    2    9    4        0.0207468074
   10    2    9    5        0.0002754101
   10    3    9    9       -0.1326319153
   10    4    9    2        0.0380333092
   10    4    9    7       -0.0005659581
   10    5    9    2        0.0005048853
   10    5    9    7       -0.0000075130
   10    6    9    9        0.0165710389
   10    7    9    4       -0.0162759929
   10    7    9    5       -0.0002160609
   10    9    9    1        0.0244880395
   10    9    9    3       -0.0003263524
   10    9    9    6        0.0078760152
   10    9    9   10        0.0172263374
   10   10    9    9        0.5828219721
   10    1   10    1        0.0581840362
   10    1   10    3        0.0602132623
   10    1   10    6       -0.0239895264
   10    1   10   10       -0.0645456841
   10    2   10    2        0.0206350186
   10    2   10    7        0.0142723439
   10    3   10    1        0.0602132623
   10    3   10    3        0.1394219544
   10    3   10    6       -0.0310339534
   10    3   10   10       -0.2303910235
   10    4   10    4        0.0344370200
   10    5   10    5        0.0344370200
   10    6   10    1       -0.0239895264
   10    6   10    3       -0.0310339534
   10    6   10    6        0.0254933035
   10    6   10   10        0.0386670997
   10    7   10    2        0.0142723439
   10    7   10    7        0.0442006423
   10    8   10    8        0.0172263374
   10    9   10    9        0.0172263374
   10   10   10    1       -0.0645456841
   10   10   10    3       -0.2303910235
   10   10   10    6        0.0386670997
   10   10   10   10        0.6970044577
 end_two_electron_integrals

 Parallel integral file used      20 records with       0 large values


 Task  times  cpu:       34.3s     wall:       37.1s


                                NWChem Input Module
                                -------------------


 Summary of allocated global arrays
-----------------------------------
  No active global arrays


MA_summarize_allocated_blocks: starting scan ...
MA_summarize_allocated_blocks: scan completed: 0 heap blocks, 0 stack blocks
MA usage statistics:

	allocation statistics:
					      heap	     stack
					      ----	     -----
	current number of blocks	         0	         0
	maximum number of blocks	        18	        42
	current total bytes		         0	         0
	maximum total bytes		  51983048	9994007128
	maximum total K-bytes		     51984	   9994008
	maximum total M-bytes		        52	      9995


                                     CITATION
                                     --------
                Please cite the following reference when publishing
                           results obtained with NWChem:

          E. Apra, E. J. Bylaska, W. A. de Jong, N. Govind, K. Kowalski,
       T. P. Straatsma, M. Valiev, H. J. J. van Dam, Y. Alexeev, J. Anchell,
       V. Anisimov, F. W. Aquino, R. Atta-Fynn, J. Autschbach, N. P. Bauman,
     J. C. Becca, D. E. Bernholdt, K. Bhaskaran-Nair, S. Bogatko, P. Borowski,
         J. Boschen, J. Brabec, A. Bruner, E. Cauet, Y. Chen, G. N. Chuev,
      C. J. Cramer, J. Daily, M. J. O. Deegan, T. H. Dunning Jr., M. Dupuis,
   K. G. Dyall, G. I. Fann, S. A. Fischer, A. Fonari, H. Fruchtl, L. Gagliardi,
      J. Garza, N. Gawande, S. Ghosh, K. Glaesemann, A. W. Gotz, J. Hammond,
       V. Helms, E. D. Hermes, K. Hirao, S. Hirata, M. Jacquelin, L. Jensen,
   B. G. Johnson, H. Jonsson, R. A. Kendall, M. Klemm, R. Kobayashi, V. Konkov,
      S. Krishnamoorthy, M. Krishnan, Z. Lin, R. D. Lins, R. J. Littlefield,
      A. J. Logsdail, K. Lopata, W. Ma, A. V. Marenich, J. Martin del Campo,
   D. Mejia-Rodriguez, J. E. Moore, J. M. Mullin, T. Nakajima, D. R. Nascimento,
    J. A. Nichols, P. J. Nichols, J. Nieplocha, A. Otero-de-la-Roza, B. Palmer,
    A. Panyala, T. Pirojsirikul, B. Peng, R. Peverati, J. Pittner, L. Pollack,
   R. M. Richard, P. Sadayappan, G. C. Schatz, W. A. Shelton, D. W. Silverstein,
   D. M. A. Smith, T. A. Soares, D. Song, M. Swart, H. L. Taylor, G. S. Thomas,
            V. Tipparaju, D. G. Truhlar, K. Tsemekhman, T. Van Voorhis,
      A. Vazquez-Mayagoitia, P. Verma, O. Villa, A. Vishnu, K. D. Vogiatzis,
        D. Wang, J. H. Weare, M. J. Williamson, T. L. Windus, K. Wolinski,
        A. T. Wong, Q. Wu, C. Yang, Q. Yu, M. Zacharias, Z. Zhang, Y. Zhao,
                                and R. J. Harrison
                        "NWChem: Past, present, and future
                         J. Chem. Phys. 152, 184102 (2020)
                               doi:10.1063/5.0004997

                                      AUTHORS
                                      -------
  E. Apra, E. J. Bylaska, N. Govind, K. Kowalski, M. Valiev, D. Mejia-Rodriguez,
       A. Kunitsa, N. P. Bauman, A. Panyala, W. A. de Jong, T. P. Straatsma,
        H. J. J. van Dam, D. Wang, T. L. Windus, J. Hammond, J. Autschbach,
    K. Bhaskaran-Nair, J. Brabec, K. Lopata, S. A. Fischer, S. Krishnamoorthy,
     M. Jacquelin, W. Ma, M. Klemm, O. Villa, Y. Chen, V. Anisimov, F. Aquino,
    S. Hirata, M. T. Hackler, Eric Hermes, L. Jensen, J. E. Moore, J. C. Becca,
      V. Konjkov, T. Risthaus, M. Malagoli, A. Marenich, A. Otero-de-la-Roza,
        J. Mullin, P. Nichols, R. Peverati, J. Pittner, Y. Zhao, P.-D. Fan,
        A. Fonari, M. J. Williamson, R. J. Harrison, J. R. Rehr, M. Dupuis,
     D. Silverstein, D. M. A. Smith, J. Nieplocha, V. Tipparaju, M. Krishnan,
     B. E. Van Kuiken, A. Vazquez-Mayagoitia, M. Swart, Q. Wu, T. Van Voorhis,
     A. A. Auer, M. Nooijen, L. D. Crosby, E. Brown, G. Cisneros, G. I. Fann,
   H. Fruchtl, J. Garza, K. Hirao, R. A. Kendall, J. A. Nichols, K. Tsemekhman,
    K. Wolinski, J. Anchell, D. E. Bernholdt, P. Borowski, T. Clark, D. Clerc,
   H. Dachsel, M. J. O. Deegan, K. Dyall, D. Elwood, E. Glendening, M. Gutowski,
   A. C. Hess, J. Jaffe, B. G. Johnson, J. Ju, R. Kobayashi, R. Kutteh, Z. Lin,
   R. Littlefield, X. Long, B. Meng, T. Nakajima, S. Niu, L. Pollack, M. Rosing,
   K. Glaesemann, G. Sandrone, M. Stave, H. Taylor, G. Thomas, J. H. van Lenthe,
                               A. T. Wong, Z. Zhang.

 Total times  cpu:       38.9s     wall:       43.4s
