 argument  1 = input.nw
  NWChem w/ OpenMP: maximum threads =    1



============================== echo of input deck ==============================
 echo
 start H2
 title "H2"

 memory total 24 gb

 geometry units bohr
 symmetry c1
        H  0.00000000  0.00000000  0.00000000
        H  0.00000000  1.95  0.00000000
 end

 basis
   * library cc-pVQZ
 end

 mcscf
   active  10
   actelec 2
   multiplicity 1
   maxiter 40
   vectors input H2.mos
   vectors output H2.mos
 end

 task mcscf

 scf
   vectors input H2.mos
   vectors output H2-1.95.mos
   noscf
 end

 tce
   2eorb
   2emet 13
   ccsd
   maxiter 300
   lshift 0.8
 end

# set tce:print_integrals T
# set tce:qorb 10
# set tce:qela 1
# set tce:qelb 1

 set tce:qducc T
 set tce:nactv 9
 set tce:nonhf T
 set tce:ducc_model 3

 set tce:printtol 0.02

 task tce
================================================================================


                                         
                                         


             Northwest Computational Chemistry Package (NWChem) 7.0.1
             --------------------------------------------------------


                    Environmental Molecular Sciences Laboratory
                       Pacific Northwest National Laboratory
                                Richland, WA 99352

                              Copyright (c) 1994-2020
                       Pacific Northwest National Laboratory
                            Battelle Memorial Institute

             NWChem is an open-source computational chemistry package
                        distributed under the terms of the
                      Educational Community License (ECL) 2.0
             A copy of the license is included with this distribution
                              in the LICENSE.TXT file

                                  ACKNOWLEDGMENT
                                  --------------

            This software and its documentation were developed at the
            EMSL at Pacific Northwest National Laboratory, a multiprogram
            national laboratory, operated for the U.S. Department of Energy
            by Battelle under Contract Number DE-AC05-76RL01830. Support
            for this work was provided by the Department of Energy Office
            of Biological and Environmental Research, Office of Basic
            Energy Sciences, and the Office of Advanced Scientific Computing.


           Job information
           ---------------

    hostname        = WE46210
    program         = /home/baum612/code/nwchem/bin/LINUX64/nwchem
    date            = Fri Nov 10 21:52:30 2023

    compiled        = Mon_Nov_06_10:06:57_2023
    source          = /home/baum612/code/nwchem
    nwchem branch   = 7.0.0
    nwchem revision = nwchem_on_git-4191-g39d87d64de
    ga revision     = 5.8.1
    use scalapack   = F
    input           = input.nw
    prefix          = H2.
    data base       = ./H2.db
    status          = startup
    nproc           =        1
    time left       =     -1s



           Memory information
           ------------------

    heap     =  805306362 doubles =   6144.0 Mbytes
    stack    =  805306367 doubles =   6144.0 Mbytes
    global   = 1610612736 doubles =  12288.0 Mbytes (distinct from heap & stack)
    total    = 3221225465 doubles =  24576.0 Mbytes
    verify   = yes
    hardfail = no 


           Directory information
           ---------------------

  0 permanent = .
  0 scratch   = .




                                NWChem Input Module
                                -------------------


                                        H2
                                        --
 Turning off AUTOSYM since
 SYMMETRY directive was detected!


          ------
          auto-z
          ------
     1 autoz failed with cvr_scaling = 1.2 changing to 1.3
  no constraints, skipping    0.0000000000000000     
  no constraints, skipping    0.0000000000000000     


                             Geometry "geometry" -> ""
                             -------------------------

 Output coordinates in a.u. (scale by  1.000000000 to convert to a.u.)

  No.       Tag          Charge          X              Y              Z
 ---- ---------------- ---------- -------------- -------------- --------------
    1 H                    1.0000     0.00000000    -0.97500000     0.00000000
    2 H                    1.0000     0.00000000     0.97500000     0.00000000

      Atomic Mass 
      ----------- 

      H                  1.007825


 Effective nuclear repulsion energy (a.u.)       0.5128205128

            Nuclear Dipole moment (a.u.) 
            ----------------------------
        X                 Y               Z
 ---------------- ---------------- ----------------
     0.0000000000     0.0000000000     0.0000000000



                                Z-matrix (autoz)
                                -------- 

 Units are Angstrom for bonds and degrees for angles

      Type          Name      I     J     K     L     M      Value
      ----------- --------  ----- ----- ----- ----- ----- ----------
    1 Stretch                  1     2                       1.03190


            XYZ format geometry
            -------------------
     2
 geometry
 H                     0.00000000    -0.51594782     0.00000000
 H                     0.00000000     0.51594782     0.00000000



 Summary of "ao basis" -> "" (cartesian)
 ------------------------------------------------------------------------------
       Tag                 Description            Shells   Functions and Types
 ---------------- ------------------------------  ------  ---------------------
 *                          cc-pVQZ                   on all atoms 


                      Basis "ao basis" -> "ao basis" (cartesian)
                      -----
  H (Hydrogen)
  ------------
            Exponent  Coefficients 
       -------------- ---------------------------------------------------------
  1 S  8.26400000E+01  0.002006
  1 S  1.24100000E+01  0.015343
  1 S  2.82400000E+00  0.075579

  2 S  7.97700000E-01  1.000000

  3 S  2.58100000E-01  1.000000

  4 S  8.98900000E-02  1.000000

  5 P  2.29200000E+00  1.000000

  6 P  8.38000000E-01  1.000000

  7 P  2.92000000E-01  1.000000

  8 D  2.06200000E+00  1.000000

  9 D  6.62000000E-01  1.000000

 10 F  1.39700000E+00  1.000000



 Summary of "ao basis" -> "ao basis" (cartesian)
 ------------------------------------------------------------------------------
       Tag                 Description            Shells   Functions and Types
 ---------------- ------------------------------  ------  ---------------------
 H                          cc-pVQZ                 10       35   4s3p2d1f



                            NWChem Direct MCSCF Module
                            --------------------------


                                        H2


     -----------------------------------
       Basis functions:             70
       Inactive shells:              0
       Active shells:               10
       Active electrons:             2
       Symmetry:                    a       
       Multiplicity:                 1
       Orbital rotations:          600
     -----------------------------------

     -----------------------------------
       E2 extrapolation:             F
       Conjugacy:                    T
       Micro CI relax:               T
       Canonical orbitals:           T
       Maximum iterations:          40
       Converge threshold:    1.00E-04
       Conjugacy resets:            20
       Initial levelshift:        0.10
     -----------------------------------

 Loading old vectors from job with title :

H2


   input molecular orbitals = ./H2.mos
  output molecular orbtials = ./H2.mos

       No. of determinants:           100


  Starting Orbital Energies
    -0.548832    -0.023501    -0.004058    -0.003235    -0.003235    -0.000330
    -0.000263    -0.000213    -0.000213    -0.000118     0.410694     0.880301
     1.082676     1.308421     1.308421     1.401057     1.401057     1.919051
     1.921454     1.921454     2.005813     2.270934     2.270934     2.435424
     2.435424     2.947077     2.993095     3.071573     3.071573     3.741579
     4.347272     4.347272     4.387461     4.387461     4.463731     5.713191
     5.713191     5.831410     5.831410     6.054461     6.396498     6.396498
     6.496601     6.496601     7.279855     7.478414     7.478414     8.018303
     8.018303     8.099645     8.099645     8.328017     8.328017     8.434043
     8.434043     8.815540     8.873840     9.467283     9.516479     9.516479
     9.590700     9.764640     9.764640    10.189685    10.260908    10.260908
    10.838092    13.209907    22.547502    26.291386

  Orbital Symmetry Irreps
a    a    a    a    a    a    a    a    a    a    a    a    a    a    a   
a    a    a    a    a    a    a    a    a    a    a    a    a    a    a   
a    a    a    a    a    a    a    a    a    a    a    a    a    a    a   
a    a    a    a    a    a    a    a    a    a    a    a    a    a    a   
a    a    a    a    a    a    a    a    a    a   

 Integral file          = ./H2.aoints.0
 Record size in doubles =  65536        No. of integs per rec  =  43688
 Max. records in memory =     99        Max. records in file   = 280203
 No. of bits per label  =      8        No. of bits per value  =     64


 #quartets = 2.216D+04 #integrals = 8.606D+05 #direct =  0.0% #cached =100.0%




          %%%%% MacroIteration   1 %%%%%


          Number of sigma calls:       17
                       o<<<<< (aa):             0.00
                       o<<<<< (bb):             0.00
                       o<<<<< (ab):             0.02
                       o<<<<< (total)           0.02
                       o<<<<< (aa) ff           0.00
                       o<<<<< (aa) gop          0.00
                       o<<<<< (aa) dot          0.00
                       o<<<<< (ab) str          0.00
                       o<<<<< (ab) gath         0.00
                       o<<<<< (ab) dotab        0.00
                       o<<<<< (ab) scat         0.00
                       o<<<<< (ab) sync         0.00
                       o<<<<< Density           0.00
                       o<<<<< Density one       0.00
                       o<<<<< Density two       0.00
                       o<<<<< Density ab        0.00
                       o<<<<< Spin adapt        0.00
                       o<<<<< Symm adapt        0.00

                       o<<<<< (ab) max sync:      0.00

           >>>| Valence CI:             -1.653316601931
           >>>| MCSCF energy:           -1.140496089110
           >>>| Gradient norm:          0.109473674D-01
     --- Warning:  300 Hessian diagonals < 0.05 ---

                              ----- Line search ------

        step       energy         lsg     num-lsg   num-lsh   lsrat    time
      ------- ---------------- --------- --------- --------- ------- --------
       0.0000      -1.14049609 -7.22D-06  0.00D+00  0.00D+00 0.0D+00      0.3

          Number of sigma calls:       15
                       o<<<<< (aa):             0.00
                       o<<<<< (bb):             0.00
                       o<<<<< (ab):             0.01
                       o<<<<< (total)           0.01
                       o<<<<< (aa) ff           0.00
                       o<<<<< (aa) gop          0.00
                       o<<<<< (aa) dot          0.00
                       o<<<<< (ab) str          0.00
                       o<<<<< (ab) gath         0.00
                       o<<<<< (ab) dotab        0.00
                       o<<<<< (ab) scat         0.00
                       o<<<<< (ab) sync         0.00
                       o<<<<< Density           0.00
                       o<<<<< Density one       0.00
                       o<<<<< Density two       0.00
                       o<<<<< Density ab        0.00
                       o<<<<< Spin adapt        0.00
                       o<<<<< Symm adapt        0.00

                       o<<<<< (ab) max sync:      0.00
       1.0000      -1.14050055 -1.70D-06 -1.70D-06  5.52D-06 2.4D-01      0.5

          Number of sigma calls:       14
                       o<<<<< (aa):             0.00
                       o<<<<< (bb):             0.00
                       o<<<<< (ab):             0.02
                       o<<<<< (total)           0.03
                       o<<<<< (aa) ff           0.00
                       o<<<<< (aa) gop          0.00
                       o<<<<< (aa) dot          0.00
                       o<<<<< (ab) str          0.00
                       o<<<<< (ab) gath         0.00
                       o<<<<< (ab) dotab        0.00
                       o<<<<< (ab) scat         0.00
                       o<<<<< (ab) sync         0.00
                       o<<<<< Density           0.00
                       o<<<<< Density one       0.00
                       o<<<<< Density two       0.00
                       o<<<<< Density ab        0.00
                       o<<<<< Spin adapt        0.00
                       o<<<<< Symm adapt        0.00

                       o<<<<< (ab) max sync:      0.00
       1.3073      -1.14050081  2.15D-09  2.07D-09  5.53D-06 3.0D-04      0.7
     --- Orbitals canonicalized ---



          %%%%% MacroIteration   2 %%%%%


          Number of sigma calls:       16
                       o<<<<< (aa):             0.00
                       o<<<<< (bb):             0.00
                       o<<<<< (ab):             0.02
                       o<<<<< (total)           0.02
                       o<<<<< (aa) ff           0.00
                       o<<<<< (aa) gop          0.00
                       o<<<<< (aa) dot          0.00
                       o<<<<< (ab) str          0.00
                       o<<<<< (ab) gath         0.00
                       o<<<<< (ab) dotab        0.00
                       o<<<<< (ab) scat         0.00
                       o<<<<< (ab) sync         0.00
                       o<<<<< Density           0.00
                       o<<<<< Density one       0.00
                       o<<<<< Density two       0.00
                       o<<<<< Density ab        0.00
                       o<<<<< Spin adapt        0.00
                       o<<<<< Symm adapt        0.00

                       o<<<<< (ab) max sync:      0.00

           >>>| Valence CI:             -1.653321322312
           >>>| MCSCF energy:           -1.140500809491
           >>>| Gradient norm:          0.300433115D-02
     --- Warning:  311 Hessian diagonals < 0.05 ---
     --- Conjugacy reset ---

                              ----- Line search ------

        step       energy         lsg     num-lsg   num-lsh   lsrat    time
      ------- ---------------- --------- --------- --------- ------- --------
       0.0000      -1.14050081 -7.38D-07  0.00D+00  0.00D+00 0.0D+00      1.0

          Number of sigma calls:       12
                       o<<<<< (aa):             0.00
                       o<<<<< (bb):             0.00
                       o<<<<< (ab):             0.01
                       o<<<<< (total)           0.02
                       o<<<<< (aa) ff           0.00
                       o<<<<< (aa) gop          0.00
                       o<<<<< (aa) dot          0.00
                       o<<<<< (ab) str          0.00
                       o<<<<< (ab) gath         0.00
                       o<<<<< (ab) dotab        0.00
                       o<<<<< (ab) scat         0.00
                       o<<<<< (ab) sync         0.00
                       o<<<<< Density           0.00
                       o<<<<< Density one       0.00
                       o<<<<< Density two       0.00
                       o<<<<< Density ab        0.00
                       o<<<<< Spin adapt        0.00
                       o<<<<< Symm adapt        0.00

                       o<<<<< (ab) max sync:      0.00
       1.0000      -1.14050131 -2.54D-07 -2.54D-07  4.84D-07 3.4D-01      1.2

          Number of sigma calls:       12
                       o<<<<< (aa):             0.00
                       o<<<<< (bb):             0.00
                       o<<<<< (ab):             0.01
                       o<<<<< (total)           0.01
                       o<<<<< (aa) ff           0.00
                       o<<<<< (aa) gop          0.00
                       o<<<<< (aa) dot          0.00
                       o<<<<< (ab) str          0.00
                       o<<<<< (ab) gath         0.00
                       o<<<<< (ab) dotab        0.00
                       o<<<<< (ab) scat         0.00
                       o<<<<< (ab) sync         0.00
                       o<<<<< Density           0.00
                       o<<<<< Density one       0.00
                       o<<<<< Density two       0.00
                       o<<<<< Density ab        0.00
                       o<<<<< Spin adapt        0.00
                       o<<<<< Symm adapt        0.00

                       o<<<<< (ab) max sync:      0.00
       1.5258      -1.14050137  2.42D-10  2.30D-10  4.84D-07 3.3D-04      1.5



          %%%%% MacroIteration   3 %%%%%


          Number of sigma calls:        1
                       o<<<<< (aa):             0.00
                       o<<<<< (bb):             0.00
                       o<<<<< (ab):             0.00
                       o<<<<< (total)           0.00
                       o<<<<< (aa) ff           0.00
                       o<<<<< (aa) gop          0.00
                       o<<<<< (aa) dot          0.00
                       o<<<<< (ab) str          0.00
                       o<<<<< (ab) gath         0.00
                       o<<<<< (ab) dotab        0.00
                       o<<<<< (ab) scat         0.00
                       o<<<<< (ab) sync         0.00
                       o<<<<< Density           0.00
                       o<<<<< Density one       0.00
                       o<<<<< Density two       0.00
                       o<<<<< Density ab        0.00
                       o<<<<< Spin adapt        0.00
                       o<<<<< Symm adapt        0.00

                       o<<<<< (ab) max sync:      0.00

           >>>| Valence CI:             -1.653321885295
           >>>| MCSCF energy:           -1.140501372474
           >>>| Gradient norm:          0.147957261D-02
     --- Warning:  311 Hessian diagonals < 0.05 ---

                              ----- Line search ------

        step       energy         lsg     num-lsg   num-lsh   lsrat    time
      ------- ---------------- --------- --------- --------- ------- --------
       0.0000      -1.14050137 -1.37D-07  0.00D+00  0.00D+00 0.0D+00      1.6

          Number of sigma calls:       12
                       o<<<<< (aa):             0.00
                       o<<<<< (bb):             0.00
                       o<<<<< (ab):             0.01
                       o<<<<< (total)           0.01
                       o<<<<< (aa) ff           0.00
                       o<<<<< (aa) gop          0.00
                       o<<<<< (aa) dot          0.00
                       o<<<<< (ab) str          0.00
                       o<<<<< (ab) gath         0.00
                       o<<<<< (ab) dotab        0.00
                       o<<<<< (ab) scat         0.00
                       o<<<<< (ab) sync         0.00
                       o<<<<< Density           0.00
                       o<<<<< Density one       0.00
                       o<<<<< Density two       0.00
                       o<<<<< Density ab        0.00
                       o<<<<< Spin adapt        0.00
                       o<<<<< Symm adapt        0.00

                       o<<<<< (ab) max sync:      0.00
       1.0000      -1.14050146 -4.65D-08 -4.65D-08  9.09D-08 3.4D-01      1.8

          Number of sigma calls:       11
                       o<<<<< (aa):             0.00
                       o<<<<< (bb):             0.00
                       o<<<<< (ab):             0.01
                       o<<<<< (total)           0.01
                       o<<<<< (aa) ff           0.00
                       o<<<<< (aa) gop          0.00
                       o<<<<< (aa) dot          0.00
                       o<<<<< (ab) str          0.00
                       o<<<<< (ab) gath         0.00
                       o<<<<< (ab) dotab        0.00
                       o<<<<< (ab) scat         0.00
                       o<<<<< (ab) sync         0.00
                       o<<<<< Density           0.00
                       o<<<<< Density one       0.00
                       o<<<<< Density two       0.00
                       o<<<<< Density ab        0.00
                       o<<<<< Spin adapt        0.00
                       o<<<<< Symm adapt        0.00

                       o<<<<< (ab) max sync:      0.00
       1.5110      -1.14050148  1.75D-11  1.65D-11  9.10D-08 1.3D-04      2.0



          %%%%% MacroIteration   4 %%%%%


          Number of sigma calls:        1
                       o<<<<< (aa):             0.00
                       o<<<<< (bb):             0.00
                       o<<<<< (ab):             0.00
                       o<<<<< (total)           0.00
                       o<<<<< (aa) ff           0.00
                       o<<<<< (aa) gop          0.00
                       o<<<<< (aa) dot          0.00
                       o<<<<< (ab) str          0.00
                       o<<<<< (ab) gath         0.00
                       o<<<<< (ab) dotab        0.00
                       o<<<<< (ab) scat         0.00
                       o<<<<< (ab) sync         0.00
                       o<<<<< Density           0.00
                       o<<<<< Density one       0.00
                       o<<<<< Density two       0.00
                       o<<<<< Density ab        0.00
                       o<<<<< Spin adapt        0.00
                       o<<<<< Symm adapt        0.00

                       o<<<<< (ab) max sync:      0.00

           >>>| Valence CI:             -1.653321989088
           >>>| MCSCF energy:           -1.140501476268
           >>>| Gradient norm:          0.762968580D-03
     --- Warning:  311 Hessian diagonals < 0.05 ---

                              ----- Line search ------

        step       energy         lsg     num-lsg   num-lsh   lsrat    time
      ------- ---------------- --------- --------- --------- ------- --------
       0.0000      -1.14050148 -4.35D-08  0.00D+00  0.00D+00 0.0D+00      2.1

          Number of sigma calls:       11
                       o<<<<< (aa):             0.00
                       o<<<<< (bb):             0.00
                       o<<<<< (ab):             0.00
                       o<<<<< (total)           0.01
                       o<<<<< (aa) ff           0.00
                       o<<<<< (aa) gop          0.00
                       o<<<<< (aa) dot          0.00
                       o<<<<< (ab) str          0.00
                       o<<<<< (ab) gath         0.00
                       o<<<<< (ab) dotab        0.00
                       o<<<<< (ab) scat         0.00
                       o<<<<< (ab) sync         0.00
                       o<<<<< Density           0.00
                       o<<<<< Density one       0.00
                       o<<<<< Density two       0.00
                       o<<<<< Density ab        0.00
                       o<<<<< Spin adapt        0.00
                       o<<<<< Symm adapt        0.00

                       o<<<<< (ab) max sync:      0.00
       1.0000      -1.14050151 -3.19D-08 -3.19D-08  1.16D-08 7.3D-01      2.2

          Number of sigma calls:       13
                       o<<<<< (aa):             0.00
                       o<<<<< (bb):             0.00
                       o<<<<< (ab):             0.00
                       o<<<<< (total)           0.00
                       o<<<<< (aa) ff           0.00
                       o<<<<< (aa) gop          0.00
                       o<<<<< (aa) dot          0.00
                       o<<<<< (ab) str          0.00
                       o<<<<< (ab) gath         0.00
                       o<<<<< (ab) dotab        0.00
                       o<<<<< (ab) scat         0.00
                       o<<<<< (ab) sync         0.00
                       o<<<<< Density           0.00
                       o<<<<< Density one       0.00
                       o<<<<< Density two       0.00
                       o<<<<< Density ab        0.00
                       o<<<<< Spin adapt        0.00
                       o<<<<< Symm adapt        0.00

                       o<<<<< (ab) max sync:      0.00
       3.7487      -1.14050156  4.02D-11  3.53D-11  1.16D-08 9.2D-04      2.2



          %%%%% MacroIteration   5 %%%%%


          Number of sigma calls:        1
                       o<<<<< (aa):             0.00
                       o<<<<< (bb):             0.00
                       o<<<<< (ab):             0.00
                       o<<<<< (total)           0.00
                       o<<<<< (aa) ff           0.00
                       o<<<<< (aa) gop          0.00
                       o<<<<< (aa) dot          0.00
                       o<<<<< (ab) str          0.00
                       o<<<<< (ab) gath         0.00
                       o<<<<< (ab) dotab        0.00
                       o<<<<< (ab) scat         0.00
                       o<<<<< (ab) sync         0.00
                       o<<<<< Density           0.00
                       o<<<<< Density one       0.00
                       o<<<<< Density two       0.00
                       o<<<<< Density ab        0.00
                       o<<<<< Spin adapt        0.00
                       o<<<<< Symm adapt        0.00

                       o<<<<< (ab) max sync:      0.00

           >>>| Valence CI:             -1.653322070566
           >>>| MCSCF energy:           -1.140501557745
           >>>| Gradient norm:          0.290279437D-03
     --- Warning:  311 Hessian diagonals < 0.05 ---

                              ----- Line search ------

        step       energy         lsg     num-lsg   num-lsh   lsrat    time
      ------- ---------------- --------- --------- --------- ------- --------
       0.0000      -1.14050156 -1.72D-07  0.00D+00  0.00D+00 0.0D+00      2.4

          Number of sigma calls:       11
                       o<<<<< (aa):             0.00
                       o<<<<< (bb):             0.00
                       o<<<<< (ab):             0.02
                       o<<<<< (total)           0.02
                       o<<<<< (aa) ff           0.00
                       o<<<<< (aa) gop          0.00
                       o<<<<< (aa) dot          0.00
                       o<<<<< (ab) str          0.00
                       o<<<<< (ab) gath         0.00
                       o<<<<< (ab) dotab        0.00
                       o<<<<< (ab) scat         0.00
                       o<<<<< (ab) sync         0.00
                       o<<<<< Density           0.00
                       o<<<<< Density one       0.00
                       o<<<<< Density two       0.00
                       o<<<<< Density ab        0.00
                       o<<<<< Spin adapt        0.00
                       o<<<<< Symm adapt        0.00

                       o<<<<< (ab) max sync:      0.00
       1.0000      -1.14050167 -5.82D-08 -5.83D-08  1.13D-07 3.4D-01      2.6

          Number of sigma calls:       10
                       o<<<<< (aa):             0.00
                       o<<<<< (bb):             0.00
                       o<<<<< (ab):             0.01
                       o<<<<< (total)           0.01
                       o<<<<< (aa) ff           0.00
                       o<<<<< (aa) gop          0.00
                       o<<<<< (aa) dot          0.00
                       o<<<<< (ab) str          0.00
                       o<<<<< (ab) gath         0.00
                       o<<<<< (ab) dotab        0.00
                       o<<<<< (ab) scat         0.00
                       o<<<<< (ab) sync         0.00
                       o<<<<< Density           0.00
                       o<<<<< Density one       0.00
                       o<<<<< Density two       0.00
                       o<<<<< Density ab        0.00
                       o<<<<< Spin adapt        0.00
                       o<<<<< Symm adapt        0.00

                       o<<<<< (ab) max sync:      0.00
       1.5136      -1.14050169  3.27D-10  3.09D-10  1.14D-07 1.9D-03      2.9



          %%%%% MacroIteration   6 %%%%%


          Number of sigma calls:        1
                       o<<<<< (aa):             0.00
                       o<<<<< (bb):             0.00
                       o<<<<< (ab):             0.00
                       o<<<<< (total)           0.00
                       o<<<<< (aa) ff           0.00
                       o<<<<< (aa) gop          0.00
                       o<<<<< (aa) dot          0.00
                       o<<<<< (ab) str          0.00
                       o<<<<< (ab) gath         0.00
                       o<<<<< (ab) dotab        0.00
                       o<<<<< (ab) scat         0.00
                       o<<<<< (ab) sync         0.00
                       o<<<<< Density           0.00
                       o<<<<< Density one       0.00
                       o<<<<< Density two       0.00
                       o<<<<< Density ab        0.00
                       o<<<<< Spin adapt        0.00
                       o<<<<< Symm adapt        0.00

                       o<<<<< (ab) max sync:      0.00

           >>>| Valence CI:             -1.653322200420
           >>>| MCSCF energy:           -1.140501687599
           >>>| Gradient norm:          0.826215585D-04




     ==============================
            MCSCF Converged
     ==============================



          Canonical Eigenvalues

              1      
    1   -0.5428
    2   -0.0247
    3   -0.0039
    4   -0.0032
    5   -0.0032
    6   -0.0003
    7   -0.0003
    8   -0.0002
    9   -0.0002
   10   -0.0001
   11    0.4161
   12    0.8804
   13    1.0824
   14    1.3173
   15    1.3173
   16    1.4113
   17    1.4113
   18    1.9216
   19    1.9216
   20    1.9881
   21    2.0123
   22    2.2503
   23    2.2503
   24    2.4224
   25    2.4224
   26    2.9457
   27    2.9682
   28    3.0593
   29    3.0593
   30    3.7477
   31    4.3595
   32    4.3595
   33    4.3856
   34    4.3856
   35    4.4283
   36    5.6864
   37    5.6864
   38    5.8490
   39    5.8490
   40    5.8814
   41    6.3682
   42    6.3682
   43    6.3965
   44    6.3965
   45    7.2084
   46    7.4021
   47    7.4021
   48    8.1004
   49    8.1004
   50    8.1046
   51    8.1046
   52    8.3131
   53    8.3131
   54    8.4368
   55    8.4368
   56    8.7469
   57    8.9162
   58    9.4213
   59    9.4213
   60    9.4844
   61    9.6223
   62    9.7525
   63    9.7525
   64   10.0825
   65   10.1264
   66   10.1264
   67   10.7536
   68   12.9852
   69   22.5144
   70   26.2142


          Converged CI vector

   Index           Coefficient          Config. Occupation
         1          0.98378451          1  1
        12         -0.15595857          2  2
        23         -0.05173105          3  3
        34         -0.04646672          4  4
        45         -0.04646672          5  5

          Number of sigma calls:        1
                       o<<<<< (aa):             0.00
                       o<<<<< (bb):             0.00
                       o<<<<< (ab):             0.00
                       o<<<<< (total)           0.00
                       o<<<<< (aa) ff           0.00
                       o<<<<< (aa) gop          0.00
                       o<<<<< (aa) dot          0.00
                       o<<<<< (ab) str          0.00
                       o<<<<< (ab) gath         0.00
                       o<<<<< (ab) dotab        0.00
                       o<<<<< (ab) scat         0.00
                       o<<<<< (ab) sync         0.00
                       o<<<<< Density           0.00
                       o<<<<< Density one       0.00
                       o<<<<< Density two       0.00
                       o<<<<< Density ab        0.00
                       o<<<<< Spin adapt        0.00
                       o<<<<< Symm adapt        0.00

                       o<<<<< (ab) max sync:      0.00



          Natural orbital occupation numbers

              1      
    1    1.9364
    2    0.0487
    3    0.0054
    4    0.0043
    5    0.0043
    6    0.0003
    7    0.0002
    8    0.0002
    9    0.0002
   10    0.0001


          Number of sigma calls:       16
                       o<<<<< (aa):             0.00
                       o<<<<< (bb):             0.00
                       o<<<<< (ab):             0.02
                       o<<<<< (total)           0.02
                       o<<<<< (aa) ff           0.00
                       o<<<<< (aa) gop          0.00
                       o<<<<< (aa) dot          0.00
                       o<<<<< (ab) str          0.00
                       o<<<<< (ab) gath         0.00
                       o<<<<< (ab) dotab        0.00
                       o<<<<< (ab) scat         0.00
                       o<<<<< (ab) sync         0.00
                       o<<<<< Density           0.00
                       o<<<<< Density one       0.00
                       o<<<<< Density two       0.00
                       o<<<<< Density ab        0.00
                       o<<<<< Spin adapt        0.00
                       o<<<<< Symm adapt        0.00

                       o<<<<< (ab) max sync:      0.00


       Final MCSCF results 
       ------------------- 

       Total MCSCF energy =     -1.140501687599
            Gradient norm =      8.3D-05

    CPU time for solution =      3.2s
   Wall time for solution =      4.0s



                        Analysis of MCSCF natural orbitals
                        ----------------------------------

 Vector    1  Occ=1.936396D+00  E=-5.428080D-01  Symmetry=a
              MO Center= -6.2D-16,  1.5D-13,  3.3D-16, r^2= 9.2D-01
   Bfn.  Coefficient  Atom+Function         Bfn.  Coefficient  Atom+Function  
  ----- ------------  ---------------      ----- ------------  ---------------
     3      0.278392  1 H  s                 38      0.278392  2 H  s          
     2      0.163319  1 H  s                 37      0.163319  2 H  s          

 Vector    2  Occ=4.865559D-02  E=-2.474151D-02  Symmetry=a
              MO Center= -3.0D-15, -3.6D-13,  1.5D-15, r^2= 9.4D-01
   Bfn.  Coefficient  Atom+Function         Bfn.  Coefficient  Atom+Function  
  ----- ------------  ---------------      ----- ------------  ---------------
     3      0.559202  1 H  s                 38     -0.559202  2 H  s          
     2      0.385992  1 H  s                 37     -0.385992  2 H  s          

 Vector    3  Occ=5.406204D-03  E=-3.944908D-03  Symmetry=a
              MO Center= -6.3D-15, -1.3D-11,  3.8D-15, r^2= 1.8D+00
   Bfn.  Coefficient  Atom+Function         Bfn.  Coefficient  Atom+Function  
  ----- ------------  ---------------      ----- ------------  ---------------
     2      0.439634  1 H  s                 37      0.439634  2 H  s          
     4     -0.368418  1 H  s                 39     -0.368418  2 H  s          
     9      0.355775  1 H  py                44     -0.355775  2 H  py         
     3     -0.214768  1 H  s                 38     -0.214768  2 H  s          

 Vector    4  Occ=4.318313D-03  E=-3.168544D-03  Symmetry=a
              MO Center=  8.5D-15,  4.0D-12, -2.5D-16, r^2= 9.3D-01
   Bfn.  Coefficient  Atom+Function         Bfn.  Coefficient  Atom+Function  
  ----- ------------  ---------------      ----- ------------  ---------------
    11      0.378875  1 H  px                46      0.378875  2 H  px         
    21      0.182681  1 H  dxy               56     -0.182681  2 H  dxy        
     8      0.176328  1 H  px                43      0.176328  2 H  px         

 Vector    5  Occ=4.318313D-03  E=-3.168544D-03  Symmetry=a
              MO Center= -9.6D-16,  4.0D-12, -1.9D-15, r^2= 9.3D-01
   Bfn.  Coefficient  Atom+Function         Bfn.  Coefficient  Atom+Function  
  ----- ------------  ---------------      ----- ------------  ---------------
    13      0.378875  1 H  pz                48      0.378875  2 H  pz         
    24      0.182681  1 H  dyz               59     -0.182681  2 H  dyz        
    10      0.176328  1 H  pz                45      0.176328  2 H  pz         

 Vector    6  Occ=2.865724D-04  E=-3.302705D-04  Symmetry=a
              MO Center= -2.6D-15, -2.8D-11,  1.1D-15, r^2= 8.0D-01
   Bfn.  Coefficient  Atom+Function         Bfn.  Coefficient  Atom+Function  
  ----- ------------  ---------------      ----- ------------  ---------------
     2      0.726163  1 H  s                 37      0.726163  2 H  s          
     9     -0.605024  1 H  py                44      0.605024  2 H  py         
    12     -0.269915  1 H  py                47      0.269915  2 H  py         
    23     -0.191753  1 H  dyy               58     -0.191753  2 H  dyy        
    27      0.160911  1 H  fxxy              34      0.160911  1 H  fyzz       

 Vector    7  Occ=2.078593D-04  E=-2.581749D-04  Symmetry=a
              MO Center= -5.7D-13,  6.5D-11,  3.3D-13, r^2= 1.2D+00
   Bfn.  Coefficient  Atom+Function         Bfn.  Coefficient  Atom+Function  
  ----- ------------  ---------------      ----- ------------  ---------------
     2      0.789223  1 H  s                 37     -0.789223  2 H  s          
     3     -0.350113  1 H  s                 38      0.350113  2 H  s          
     4     -0.271599  1 H  s                 39      0.271599  2 H  s          
     1      0.169629  1 H  s                 20     -0.169512  1 H  dxx        
    25     -0.169512  1 H  dzz               36     -0.169629  2 H  s          

 Vector    8  Occ=1.699817D-04  E=-2.098825D-04  Symmetry=a
              MO Center= -1.3D-13,  2.8D-12,  9.2D-14, r^2= 8.4D-01
   Bfn.  Coefficient  Atom+Function         Bfn.  Coefficient  Atom+Function  
  ----- ------------  ---------------      ----- ------------  ---------------
     8      0.703561  1 H  px                43     -0.703561  2 H  px         
    10     -0.492507  1 H  pz                45      0.492507  2 H  pz         
    11      0.267743  1 H  px                46     -0.267743  2 H  px         
    13     -0.187425  1 H  pz                48      0.187425  2 H  pz         

 Vector    9  Occ=1.699817D-04  E=-2.098825D-04  Symmetry=a
              MO Center= -5.7D-15,  2.9D-12, -7.3D-15, r^2= 8.4D-01
   Bfn.  Coefficient  Atom+Function         Bfn.  Coefficient  Atom+Function  
  ----- ------------  ---------------      ----- ------------  ---------------
    10      0.703561  1 H  pz                45     -0.703561  2 H  pz         
     8      0.492507  1 H  px                43     -0.492507  2 H  px         
    13      0.267743  1 H  pz                48     -0.267743  2 H  pz         
    11      0.187425  1 H  px                46     -0.187425  2 H  px         

 Vector   10  Occ=7.085381D-05  E=-1.143629D-04  Symmetry=a
              MO Center= -2.4D-15,  1.4D-10, -5.3D-17, r^2= 1.4D+00
   Bfn.  Coefficient  Atom+Function         Bfn.  Coefficient  Atom+Function  
  ----- ------------  ---------------      ----- ------------  ---------------
     9      0.935161  1 H  py                44     -0.935161  2 H  py         
    32     -0.638797  1 H  fyyy              67      0.638797  2 H  fyyy       
     6     -0.556299  1 H  py                41      0.556299  2 H  py         
    27     -0.405522  1 H  fxxy              34     -0.405522  1 H  fyzz       
    62      0.405522  2 H  fxxy              69      0.405522  2 H  fyzz       

 Vector   11  Occ=0.000000D+00  E= 4.160719D-01  Symmetry=a
              MO Center=  2.2D-13, -1.5D-11, -1.3D-13, r^2= 6.8D+00
   Bfn.  Coefficient  Atom+Function         Bfn.  Coefficient  Atom+Function  
  ----- ------------  ---------------      ----- ------------  ---------------
     4      3.553609  1 H  s                 39     -3.553609  2 H  s          
     3     -2.107997  1 H  s                 38      2.107997  2 H  s          
    12      0.870446  1 H  py                47      0.870446  2 H  py         
     2      0.830542  1 H  s                 37     -0.830542  2 H  s          
    23      0.524556  1 H  dyy               58     -0.524556  2 H  dyy        

 Vector   12  Occ=0.000000D+00  E= 8.803982D-01  Symmetry=a
              MO Center=  1.8D-15,  1.8D-10, -2.5D-16, r^2= 4.7D+00
   Bfn.  Coefficient  Atom+Function         Bfn.  Coefficient  Atom+Function  
  ----- ------------  ---------------      ----- ------------  ---------------
     3      3.336303  1 H  s                 38      3.336303  2 H  s          
     9      2.554615  1 H  py                44     -2.554615  2 H  py         
     4     -1.325073  1 H  s                 39     -1.325073  2 H  s          
    12     -1.102795  1 H  py                47      1.102795  2 H  py         
     2     -1.028983  1 H  s                 37     -1.028983  2 H  s          

 Vector   13  Occ=0.000000D+00  E= 1.082364D+00  Symmetry=a
              MO Center= -6.5D-13, -2.3D-10,  3.9D-13, r^2= 2.8D+00
   Bfn.  Coefficient  Atom+Function         Bfn.  Coefficient  Atom+Function  
  ----- ------------  ---------------      ----- ------------  ---------------
     3      9.616006  1 H  s                 38     -9.616006  2 H  s          
    12      5.493434  1 H  py                47      5.493434  2 H  py         
     9     -1.042949  1 H  py                44     -1.042949  2 H  py         
     2     -0.632658  1 H  s                 37      0.632658  2 H  s          
    32      0.613284  1 H  fyyy              67      0.613284  2 H  fyyy       

 Vector   14  Occ=0.000000D+00  E= 1.317286D+00  Symmetry=a
              MO Center= -2.9D-14, -1.1D-10, -4.7D-13, r^2= 2.8D+00
   Bfn.  Coefficient  Atom+Function         Bfn.  Coefficient  Atom+Function  
  ----- ------------  ---------------      ----- ------------  ---------------
    10      5.508670  1 H  pz                45     -5.508670  2 H  pz         
    13     -2.213414  1 H  pz                48      2.213414  2 H  pz         
    33     -2.116748  1 H  fyyz              68      2.116748  2 H  fyyz       
    28     -2.075569  1 H  fxxz              35     -2.075569  1 H  fzzz       
    63      2.075569  2 H  fxxz              70      2.075569  2 H  fzzz       

 Vector   15  Occ=0.000000D+00  E= 1.317286D+00  Symmetry=a
              MO Center=  9.3D-13, -1.1D-10, -5.7D-14, r^2= 2.8D+00
   Bfn.  Coefficient  Atom+Function         Bfn.  Coefficient  Atom+Function  
  ----- ------------  ---------------      ----- ------------  ---------------
     8      5.508670  1 H  px                43     -5.508670  2 H  px         
    11     -2.213414  1 H  px                46      2.213414  2 H  px         
    29     -2.116748  1 H  fxyy              64      2.116748  2 H  fxyy       
    26     -2.075569  1 H  fxxx              31     -2.075569  1 H  fxzz       
    61      2.075569  2 H  fxxx              66      2.075569  2 H  fxzz       

 Vector   16  Occ=0.000000D+00  E= 1.411251D+00  Symmetry=a
              MO Center=  2.8D-17,  1.1D-10, -1.2D-15, r^2= 2.1D+00
   Bfn.  Coefficient  Atom+Function         Bfn.  Coefficient  Atom+Function  
  ----- ------------  ---------------      ----- ------------  ---------------
    10      5.255533  1 H  pz                45      5.255533  2 H  pz         
    33     -2.086584  1 H  fyyz              68     -2.086584  2 H  fyyz       
    28     -2.056560  1 H  fxxz              35     -2.056560  1 H  fzzz       
    63     -2.056560  2 H  fxxz              70     -2.056560  2 H  fzzz       
     7     -1.395463  1 H  pz                42     -1.395463  2 H  pz         

 Vector   17  Occ=0.000000D+00  E= 1.411251D+00  Symmetry=a
              MO Center= -4.5D-16,  1.1D-10, -9.1D-17, r^2= 2.1D+00
   Bfn.  Coefficient  Atom+Function         Bfn.  Coefficient  Atom+Function  
  ----- ------------  ---------------      ----- ------------  ---------------
     8      5.255533  1 H  px                43      5.255533  2 H  px         
    29     -2.086584  1 H  fxyy              64     -2.086584  2 H  fxyy       
    26     -2.056560  1 H  fxxx              31     -2.056560  1 H  fxzz       
    61     -2.056560  2 H  fxxx              66     -2.056560  2 H  fxzz       
     5     -1.395463  1 H  px                40     -1.395463  2 H  px         

 Vector   18  Occ=0.000000D+00  E= 1.921574D+00  Symmetry=a
              MO Center=  6.6D-16, -3.1D-14, -1.2D-16, r^2= 1.0D+00
   Bfn.  Coefficient  Atom+Function         Bfn.  Coefficient  Atom+Function  
  ----- ------------  ---------------      ----- ------------  ---------------
    22      1.160089  1 H  dxz               57      1.160089  2 H  dxz        
    16     -0.168403  1 H  dxz               51     -0.168403  2 H  dxz        

 Vector   19  Occ=0.000000D+00  E= 1.921574D+00  Symmetry=a
              MO Center= -1.1D-15, -2.7D-14, -9.9D-16, r^2= 1.0D+00
   Bfn.  Coefficient  Atom+Function         Bfn.  Coefficient  Atom+Function  
  ----- ------------  ---------------      ----- ------------  ---------------
    20      0.580044  1 H  dxx               25     -0.580044  1 H  dzz        
    55      0.580044  2 H  dxx               60     -0.580044  2 H  dzz        

 Vector   20  Occ=0.000000D+00  E= 1.988098D+00  Symmetry=a
              MO Center=  3.7D-15,  1.1D-10, -6.7D-16, r^2= 2.8D+00
   Bfn.  Coefficient  Atom+Function         Bfn.  Coefficient  Atom+Function  
  ----- ------------  ---------------      ----- ------------  ---------------
     9      5.491166  1 H  py                44     -5.491166  2 H  py         
     3     -3.274609  1 H  s                 38     -3.274609  2 H  s          
    32     -2.286756  1 H  fyyy              67      2.286756  2 H  fyyy       
    27     -2.261410  1 H  fxxy              34     -2.261410  1 H  fyzz       
    62      2.261410  2 H  fxxy              69      2.261410  2 H  fyzz       


 Wrote Lagrangian and 1- and 2-particle density matrices to ./H2.mcpdm


     Multipole analysis of the density
     ---------------------------------

     L   x y z        total        nuclear
     -   - - -        -----        -------
     0   0 0 0     -0.000000      2.000000

     1   1 0 0      0.000000      0.000000
     1   0 1 0     -0.000000      0.000000
     1   0 0 1     -0.000000      0.000000

     2   2 0 0     -1.802294      0.000000
     2   1 1 0      0.000000      0.000000
     2   1 0 1     -0.000000      0.000000
     2   0 2 0     -1.085265      1.901250
     2   0 1 1     -0.000000      0.000000
     2   0 0 2     -1.802294      0.000000


  Mulliken analysis of the total density
  --------------------------------------

    Atom       Charge   Shell Charges
 -----------   ------   -------------------------------------------------------
    1 H    1     1.00   0.05  0.23  0.49  0.20  0.00  0.00  0.01  0.00  0.00  0.00
    2 H    1     1.00   0.05  0.23  0.49  0.20  0.00  0.00  0.01  0.00  0.00  0.00

    Mulliken analysis of the active space density
    ---------------------------------------------

    Atom       Charge   Shell Charges
 -----------   ------   -------------------------------------------------------
    1 H    1     1.00   0.05  0.23  0.49  0.20  0.00  0.00  0.01  0.00  0.00  0.00
    2 H    1     1.00   0.05  0.23  0.49  0.20  0.00  0.00  0.01  0.00  0.00  0.00

 Parallel integral file used      20 records with       0 large values


 Task  times  cpu:        3.3s     wall:        4.1s


                                NWChem Input Module
                                -------------------


                                 NWChem SCF Module
                                 -----------------


                                        H2



  ao basis        = "ao basis"
  functions       =    70
  atoms           =     2
  closed shells   =     1
  open shells     =     0
  charge          =   0.00
  wavefunction    = RHF 
  input vectors   = ./H2.mos
  output vectors  = ./H2-1.95.mos
  use symmetry    = F
  symmetry adapt  = F


 Summary of "ao basis" -> "ao basis" (cartesian)
 ------------------------------------------------------------------------------
       Tag                 Description            Shells   Functions and Types
 ---------------- ------------------------------  ------  ---------------------
 H                          cc-pVQZ                 10       35   4s3p2d1f



 Forming initial guess at       4.1s


 Loading old vectors from job with title :

H2


 Starting SCF solution at       4.1s



 ----------------------------------------------
         Quadratically convergent ROHF

 Convergence threshold     :          1.000E-04
 Maximum no. of iterations :           30
 Final Fock-matrix accuracy:          1.000E-07
 ----------------------------------------------


 Integral file          = ./H2.aoints.0
 Record size in doubles =  65536        No. of integs per rec  =  43688
 Max. records in memory =     99        Max. records in file   = 280255
 No. of bits per label  =      8        No. of bits per value  =     64


 #quartets = 2.216D+04 #integrals = 8.606D+05 #direct =  0.0% #cached =100.0%



       Final RHF  results 
       ------------------ 

         Total SCF energy =     -1.096031427006
      One-electron energy =     -2.185538392844
      Two-electron energy =      0.576686453017
 Nuclear repulsion energy =      0.512820512821

        Time for solution =      0.1s


             Final eigenvalues
             -----------------

              1      
    1   -0.5428
    2   -0.0247
    3   -0.0039
    4   -0.0032
    5   -0.0032
    6   -0.0003
    7   -0.0003
    8   -0.0002
    9   -0.0002
   10   -0.0001
   11    0.4161

                       ROHF Final Molecular Orbital Analysis
                       -------------------------------------

 Vector    1  Occ=2.000000D+00  E=-5.428080D-01
              MO Center= -6.2D-16,  1.5D-13,  3.3D-16, r^2= 9.2D-01
   Bfn.  Coefficient  Atom+Function         Bfn.  Coefficient  Atom+Function  
  ----- ------------  ---------------      ----- ------------  ---------------
     3      0.278392  1 H  s                 38      0.278392  2 H  s          
     2      0.163319  1 H  s                 37      0.163319  2 H  s          

 Vector    2  Occ=0.000000D+00  E=-2.474151D-02
              MO Center= -3.0D-15, -3.6D-13,  1.5D-15, r^2= 9.4D-01
   Bfn.  Coefficient  Atom+Function         Bfn.  Coefficient  Atom+Function  
  ----- ------------  ---------------      ----- ------------  ---------------
     3      0.559202  1 H  s                 38     -0.559202  2 H  s          
     2      0.385992  1 H  s                 37     -0.385992  2 H  s          

 Vector    3  Occ=0.000000D+00  E=-3.944908D-03
              MO Center= -6.3D-15, -1.3D-11,  3.8D-15, r^2= 1.8D+00
   Bfn.  Coefficient  Atom+Function         Bfn.  Coefficient  Atom+Function  
  ----- ------------  ---------------      ----- ------------  ---------------
     2      0.439634  1 H  s                 37      0.439634  2 H  s          
     4     -0.368418  1 H  s                 39     -0.368418  2 H  s          
     9      0.355775  1 H  py                44     -0.355775  2 H  py         
     3     -0.214768  1 H  s                 38     -0.214768  2 H  s          

 Vector    4  Occ=0.000000D+00  E=-3.168544D-03
              MO Center=  8.5D-15,  4.0D-12, -2.5D-16, r^2= 9.3D-01
   Bfn.  Coefficient  Atom+Function         Bfn.  Coefficient  Atom+Function  
  ----- ------------  ---------------      ----- ------------  ---------------
    11      0.378875  1 H  px                46      0.378875  2 H  px         
    21      0.182681  1 H  dxy               56     -0.182681  2 H  dxy        
     8      0.176328  1 H  px                43      0.176328  2 H  px         

 Vector    5  Occ=0.000000D+00  E=-3.168544D-03
              MO Center= -9.6D-16,  4.0D-12, -1.9D-15, r^2= 9.3D-01
   Bfn.  Coefficient  Atom+Function         Bfn.  Coefficient  Atom+Function  
  ----- ------------  ---------------      ----- ------------  ---------------
    13      0.378875  1 H  pz                48      0.378875  2 H  pz         
    24      0.182681  1 H  dyz               59     -0.182681  2 H  dyz        
    10      0.176328  1 H  pz                45      0.176328  2 H  pz         

 Vector    6  Occ=0.000000D+00  E=-3.302705D-04
              MO Center= -2.6D-15, -2.8D-11,  1.1D-15, r^2= 8.0D-01
   Bfn.  Coefficient  Atom+Function         Bfn.  Coefficient  Atom+Function  
  ----- ------------  ---------------      ----- ------------  ---------------
     2      0.726163  1 H  s                 37      0.726163  2 H  s          
     9     -0.605024  1 H  py                44      0.605024  2 H  py         
    12     -0.269915  1 H  py                47      0.269915  2 H  py         
    23     -0.191753  1 H  dyy               58     -0.191753  2 H  dyy        
    27      0.160911  1 H  fxxy              34      0.160911  1 H  fyzz       

 Vector    7  Occ=0.000000D+00  E=-2.581749D-04
              MO Center= -5.7D-13,  6.5D-11,  3.3D-13, r^2= 1.2D+00
   Bfn.  Coefficient  Atom+Function         Bfn.  Coefficient  Atom+Function  
  ----- ------------  ---------------      ----- ------------  ---------------
     2      0.789223  1 H  s                 37     -0.789223  2 H  s          
     3     -0.350113  1 H  s                 38      0.350113  2 H  s          
     4     -0.271599  1 H  s                 39      0.271599  2 H  s          
     1      0.169629  1 H  s                 20     -0.169512  1 H  dxx        
    25     -0.169512  1 H  dzz               36     -0.169629  2 H  s          

 Vector    8  Occ=0.000000D+00  E=-2.098825D-04
              MO Center= -1.3D-13,  2.8D-12,  9.2D-14, r^2= 8.4D-01
   Bfn.  Coefficient  Atom+Function         Bfn.  Coefficient  Atom+Function  
  ----- ------------  ---------------      ----- ------------  ---------------
     8      0.703561  1 H  px                43     -0.703561  2 H  px         
    10     -0.492507  1 H  pz                45      0.492507  2 H  pz         
    11      0.267743  1 H  px                46     -0.267743  2 H  px         
    13     -0.187425  1 H  pz                48      0.187425  2 H  pz         

 Vector    9  Occ=0.000000D+00  E=-2.098825D-04
              MO Center= -5.7D-15,  2.9D-12, -7.3D-15, r^2= 8.4D-01
   Bfn.  Coefficient  Atom+Function         Bfn.  Coefficient  Atom+Function  
  ----- ------------  ---------------      ----- ------------  ---------------
    10      0.703561  1 H  pz                45     -0.703561  2 H  pz         
     8      0.492507  1 H  px                43     -0.492507  2 H  px         
    13      0.267743  1 H  pz                48     -0.267743  2 H  pz         
    11      0.187425  1 H  px                46     -0.187425  2 H  px         

 Vector   10  Occ=0.000000D+00  E=-1.143629D-04
              MO Center= -2.4D-15,  1.4D-10, -5.3D-17, r^2= 1.4D+00
   Bfn.  Coefficient  Atom+Function         Bfn.  Coefficient  Atom+Function  
  ----- ------------  ---------------      ----- ------------  ---------------
     9      0.935161  1 H  py                44     -0.935161  2 H  py         
    32     -0.638797  1 H  fyyy              67      0.638797  2 H  fyyy       
     6     -0.556299  1 H  py                41      0.556299  2 H  py         
    27     -0.405522  1 H  fxxy              34     -0.405522  1 H  fyzz       
    62      0.405522  2 H  fxxy              69      0.405522  2 H  fyzz       

 Vector   11  Occ=0.000000D+00  E= 4.160719D-01
              MO Center=  2.2D-13, -1.5D-11, -1.3D-13, r^2= 6.8D+00
   Bfn.  Coefficient  Atom+Function         Bfn.  Coefficient  Atom+Function  
  ----- ------------  ---------------      ----- ------------  ---------------
     4      3.553609  1 H  s                 39     -3.553609  2 H  s          
     3     -2.107997  1 H  s                 38      2.107997  2 H  s          
    12      0.870446  1 H  py                47      0.870446  2 H  py         
     2      0.830542  1 H  s                 37     -0.830542  2 H  s          
    23      0.524556  1 H  dyy               58     -0.524556  2 H  dyy        

 Vector   12  Occ=0.000000D+00  E= 8.803982D-01
              MO Center=  1.8D-15,  1.8D-10, -2.5D-16, r^2= 4.7D+00
   Bfn.  Coefficient  Atom+Function         Bfn.  Coefficient  Atom+Function  
  ----- ------------  ---------------      ----- ------------  ---------------
     3      3.336303  1 H  s                 38      3.336303  2 H  s          
     9      2.554615  1 H  py                44     -2.554615  2 H  py         
     4     -1.325073  1 H  s                 39     -1.325073  2 H  s          
    12     -1.102795  1 H  py                47      1.102795  2 H  py         
     2     -1.028983  1 H  s                 37     -1.028983  2 H  s          


 center of mass
 --------------
 x =   0.00000000 y =   0.00000000 z =   0.00000000

 moments of inertia (a.u.)
 ------------------
           1.916127281250           0.000000000000           0.000000000000
           0.000000000000           0.000000000000           0.000000000000
           0.000000000000           0.000000000000           1.916127281250

  Mulliken analysis of the total density
  --------------------------------------

    Atom       Charge   Shell Charges
 -----------   ------   -------------------------------------------------------
    1 H    1     1.00   0.05  0.23  0.49  0.21  0.00  0.00  0.01  0.00  0.00  0.00
    2 H    1     1.00   0.05  0.23  0.49  0.21  0.00  0.00  0.01  0.00  0.00  0.00

       Multipole analysis of the density wrt the origin
       ------------------------------------------------

     L   x y z        total         open         nuclear
     -   - - -        -----         ----         -------
     0   0 0 0     -0.000000      0.000000      2.000000

     1   1 0 0      0.000000      0.000000      0.000000
     1   0 1 0     -0.000000      0.000000      0.000000
     1   0 0 1     -0.000000      0.000000      0.000000

     2   2 0 0     -1.812202      0.000000      0.000000
     2   1 1 0     -0.000000      0.000000      0.000000
     2   1 0 1     -0.000000      0.000000      0.000000
     2   0 2 0     -1.045339      0.000000      1.901250
     2   0 1 1     -0.000000      0.000000      0.000000
     2   0 0 2     -1.812202      0.000000      0.000000


 Parallel integral file used      20 records with       0 large values

                   NWChem Extensible Many-Electron Theory Module
                   ---------------------------------------------

              ======================================================
                   This portion of the program was automatically
                  generated by a Tensor Contraction Engine (TCE).
                  The development of this portion of the program
                 and TCE was supported by US Department of Energy,
                Office of Science, Office of Basic Energy Science.
                      TCE is a product of Battelle and PNNL.
              Please cite: S.Hirata, J.Phys.Chem.A 107, 9887 (2003).
              ======================================================

                                        H2


            General Information
            -------------------
      Number of processors :     1
         Wavefunction type : Restricted Hartree-Fock
          No. of electrons :     2
           Alpha electrons :     1
            Beta electrons :     1
           No. of orbitals :   140
            Alpha orbitals :    70
             Beta orbitals :    70
        Alpha frozen cores :     0
         Beta frozen cores :     0
     Alpha frozen virtuals :     0
      Beta frozen virtuals :     0
         Spin multiplicity : singlet 
    Number of AO functions :    70
       Number of AO shells :    20
        Use of symmetry is : off
      Symmetry adaption is : off
         Schwarz screening : 0.10D-09

          Correlation Information
          -----------------------
          Calculation type : Coupled-cluster singles & doubles                           
   Perturbative correction : none                                                        
            Max iterations :      300
        Residual threshold : 0.10D-06
     T(0) DIIS level shift : 0.80D+00
     L(0) DIIS level shift : 0.00D+00
     T(1) DIIS level shift : 0.00D+00
     L(1) DIIS level shift : 0.00D+00
     T(R) DIIS level shift : 0.00D+00
     T(I) DIIS level shift : 0.00D+00
   CC-T/L Amplitude update :  5-th order DIIS
                I/O scheme : Global Array Library
        L-threshold :  0.10D-06
        EOM-threshold :  0.10D-06
 no EOMCCSD initial starts read in
 TCE RESTART OPTIONS
 READ_INT:   F
 WRITE_INT:  F
 READ_TA:    F
 WRITE_TA:   F
 READ_XA:    F
 WRITE_XA:   F
 READ_IN3:   F
 WRITE_IN3:  F
 SLICE:      F
 D4D5:       F
 quantumc:   F
 qrotation:  F
 pwtce:      F
 qducc:      T
 nacto:                         0
 nrotv:                         0
 nrot:                          0

            Memory Information
            ------------------
          Available GA space size is    1610607836 doubles
          Available MA space size is    1610610644 doubles

 Maximum block size        32 doubles

 tile_dim =     23

 Block   Spin    Irrep     Size     Offset   Alpha
 -------------------------------------------------
   1    alpha     a      1 doubles       0       1
   2    beta      a      1 doubles       1       1
   3    alpha     a     23 doubles       2       3
   4    alpha     a     23 doubles      25       4
   5    alpha     a     23 doubles      48       5
   6    beta      a     23 doubles      71       3
   7    beta      a     23 doubles      94       4
   8    beta      a     23 doubles     117       5

 Global array virtual files algorithm will be used

 Parallel file system coherency ......... OK

 Integral file          = ./H2.aoints.0
 Record size in doubles =  65536        No. of integs per rec  =  43688
 Max. records in memory =     99        Max. records in file   = 280255
 No. of bits per label  =      8        No. of bits per value  =     64


 #quartets = 2.216D+04 #integrals = 8.606D+05 #direct =  0.0% #cached =100.0%


 Fock matrix recomputed
 1-e file size   =             4900
 1-e file name   = ./H2.f1
 Cpu & wall time / sec            0.1            0.1
 4-electron integrals stored in orbital form

 v2    file size   =          6102085
 4-index algorithm nr.  13 is used
 imaxsize =       30
 imaxsize ichop =        0
 Cpu & wall time / sec            2.9            2.9
 T1-number-of-tasks                    3

 t1 file size   =               69
 t1 file name   = ./H2.t1
 t1 file handle =       -998
 T2-number-of-boxes                   15

 t2 file size   =             7935
 t2 file name   = ./H2.t2
 t2 file handle =       -996
CCSD iterations
 ---------------------------------------------------------
 Iter          Residuum       Correlation     Cpu    Wall 
 ---------------------------------------------------------
NEW TASK SCHEDULING
CCSD_T1_NTS --- OK
CCSD_T2_NTS --- OK
    1   0.7950723575368  -0.0852900827343     0.1     0.1
    2   0.9364538647276  -0.0219189800107     0.1     0.1
    3   1.3336177633397  -0.0722975131888     0.1     0.1
    4   2.0827205111133  -0.0123837144385     0.1     0.1
    5   3.3598941950287  -0.0901445378471     0.1     0.1
 MICROCYCLE DIIS UPDATE:                    5                    5
    6   0.0158145189543  -0.0451688944275     0.1     0.1
    7   0.0139002122350  -0.0456075178262     0.0     0.1
    8   0.0155356889559  -0.0453219822485     0.0     0.1
    9   0.0210871337697  -0.0458876559836     0.1     0.2
   10   0.0280856158263  -0.0453372412949     0.1     0.1
 MICROCYCLE DIIS UPDATE:                   10                    5
   11   0.0019709886217  -0.0457853941527     0.0     0.1
   12   0.0016811058805  -0.0458419627552     0.1     0.1
   13   0.0021538488166  -0.0458842484410     0.1     0.1
   14   0.0035480505066  -0.0458672009402     0.1     0.1
   15   0.0060753268609  -0.0459566260138     0.1     0.1
 MICROCYCLE DIIS UPDATE:                   15                    5
   16   0.0002492825450  -0.0459309484526     0.1     0.1
   17   0.0001518414913  -0.0459246557132     0.1     0.1
   18   0.0001186558126  -0.0459306317168     0.1     0.1
   19   0.0001073919071  -0.0459266002174     0.1     0.1
   20   0.0001290635330  -0.0459323079840     0.1     0.1
 MICROCYCLE DIIS UPDATE:                   20                    5
   21   0.0000268151288  -0.0459304683761     0.1     0.1
   22   0.0000201557240  -0.0459316732007     0.1     0.1
   23   0.0000241260501  -0.0459315857793     0.1     0.1
   24   0.0000371469013  -0.0459326340210     0.1     0.1
   25   0.0000630670993  -0.0459316232487     0.1     0.1
 MICROCYCLE DIIS UPDATE:                   25                    5
   26   0.0000038769022  -0.0459326696026     0.1     0.1
   27   0.0000025066360  -0.0459326508039     0.2     0.2
   28   0.0000019803981  -0.0459326864617     0.2     0.2
   29   0.0000018209737  -0.0459326975361     0.0     0.2
   30   0.0000017951931  -0.0459327127954     0.1     0.1
 MICROCYCLE DIIS UPDATE:                   30                    5
   31   0.0000004587061  -0.0459327359926     0.1     0.1
   32   0.0000003316282  -0.0459327449919     0.1     0.1
   33   0.0000003773267  -0.0459327579706     0.1     0.1
   34   0.0000005953653  -0.0459327538607     0.1     0.1
   35   0.0000010175695  -0.0459327721598     0.2     0.2
 MICROCYCLE DIIS UPDATE:                   35                    5
   36   0.0000000699328  -0.0459327677983     0.1     0.1
 -----------------------------------------------------------------
 Iterations converged
 CCSD correlation energy / hartree =        -0.045932767798268
 CCSD total energy / hartree       =        -1.141964194804226

 Singles contributions

 Doubles contributions
     2a   (alpha)     2a   (beta ) ---     1a   (alpha)     1a   (beta )       -0.1562565172
     3a   (alpha)     3a   (beta ) ---     1a   (alpha)     1a   (beta )       -0.0517663596
     4a   (alpha)     4a   (beta ) ---     1a   (alpha)     1a   (beta )       -0.0465758913
     5a   (alpha)     5a   (beta ) ---     1a   (alpha)     1a   (beta )       -0.0465758913
 Ground state specification:
 exp(T)|Ref>~(1+T)|Ref>
 ------- a(p)+/a(q) strings ----------

 singles norm

 doubles norm

 Reference string
  0.98801105160031422      :(1a)+ (1b)+ |0>

 Singles strings

 Doubles strings
 -0.15438316590755993      :(2a)+ (2b)+ (1b)  (1a)  (1a)+ (1b)+ |0>
 -------------------------------------
 enrep_tce =   0.51282051282051266     
  EHF(total)         =        -1.09603143
  Shift (HFtot-HFA)  =         0.00000000
 ALL OCCUPIED ORBITALS ARE ACTIVE IN DUCC --> NO SHIFT
 Number of active orbitals                   10
 Number of active alpha electrons                    1
 Number of active beta electrons                    1
  nos                     2
  nvs                   138
 noas                     1
 nobs                     1
 nvas                    69
 nvbs                    69
 nactv                     9
 DUCC MODEL =                     3
 NONHF =  T
 F-T1 correlation    =    3.4374609591420276E-006
 V-T1-T1 correlation =    1.9149704397427377E-008
 V-T2 correlation    =   -4.5936224408931477E-002
 Total correlation   =   -4.5932767798267937E-002
 F-T1(Ext) correlation         =   -4.9712484822288232E-007
 V-T1(Ext)-T1(Ext) correlation =    3.0952153498631652E-010
 V-T2(Ext) correlation         =   -2.1064406475274030E-003
 Total Ext correlation         =   -2.1069374628540911E-003
1-BODY TIME =    0.036 SECONDS.
  HHHH TIME =    0.014 SECONDS.
  PPPP TIME =    0.001 SECONDS.
  HHHP TIME =    0.034 SECONDS.
  PPPH TIME =    0.080 SECONDS.
  HPHP TIME =    0.014 SECONDS.
  HHPP TIME =    0.316 SECONDS.
 ONE-BODY UNITARY CHECK
 TWO-BODY UNITARY CHECK
 TWO-BODY ANTISYMMETRY CHECK
 TRANSFORMED ~FOCK~ MATRIX
    1    1        -0.5186765366
    1    3         0.0056729751
    1    6         0.0177648263
    1   10         0.0002758190
    2    2         0.3451981386
    2    7         0.3711208201
    3    1         0.0056729751
    3    3         0.7553481471
    3    6        -0.1474077541
    3   10        -0.7134521632
    4    4         0.7996274377
    5    5         0.7996274377
    6    1         0.0177648263
    6    3        -0.1474077541
    6    6         1.7620523012
    6   10         0.2260319462
    7    2         0.3711208201
    7    7         1.9415496989
    7   10         0.0000000001
    8    8         1.8943634766
    9    9         1.8943634766
   10    1         0.0002758190
   10    3        -0.7134521632
   10    6         0.2260319462
   10    7         0.0000000001
   10   10         2.8399629822
 begin_one_electron_integrals
    1    1        -1.0927691335
    1    3        -0.1401519121
    1    6        -0.0025790060
    1   10         0.0091036430
    2    2        -0.6363997058
    2    7         0.1560034782
    3    1        -0.1401519121
    3    3        -0.1595793401
    3    6        -0.0882609825
    3   10        -0.4542752893
    4    4        -0.1829975096
    5    5        -0.1829975096
    6    1        -0.0025790060
    6    3        -0.0882609825
    6    6         0.6585831173
    6   10         0.1939847896
    7    2         0.1560034782
    7    7         0.8672808016
    8    8         0.8228893245
    9    9         0.8228893245
   10    1         0.0091036430
   10    3        -0.4542752893
   10    6         0.1939847896
   10   10         1.7546920019
 end_one_electron_integrals
 begin_two_electron_integrals
    1    1    1    1        0.5740925969
    1    1    1    3        0.1458248872
    1    1    1    6        0.0203438323
    1    1    1   10       -0.0088278240
    1    2    1    2        0.1656968708
    1    2    1    7        0.0504239234
    1    3    1    1        0.1458248872
    1    3    1    3        0.1049901761
    1    3    1    6       -0.0051669422
    1    3    1   10       -0.0368778909
    1    4    1    4        0.0963371414
    1    5    1    5        0.0963371414
    1    6    1    1        0.0203438323
    1    6    1    3       -0.0051669422
    1    6    1    6        0.0722380731
    1    6    1   10        0.0060101819
    1    7    1    2        0.0504239234
    1    7    1    7        0.0680825647
    1    8    1    8        0.0578116179
    1    9    1    9        0.0578116179
    1   10    1    1       -0.0088278240
    1   10    1    3       -0.0368778909
    1   10    1    6        0.0060101819
    1   10    1   10        0.0486069634
    1    1    2    2        0.5746849775
    1    1    2    7        0.1329081366
    1    2    2    1        0.1677721105
    1    2    2    3        0.0255626167
    1    2    2    6        0.1408210425
    1    2    2   10        0.0157860007
    1    3    2    2        0.1271214398
    1    3    2    7        0.0990184362
    1    4    2    8        0.0735704269
    1    4    2    9        0.0386295011
    1    5    2    8       -0.0386295011
    1    5    2    9        0.0735704269
    1    6    2    2        0.0740986223
    1    6    2    7        0.0152243319
    1    7    2    1        0.0506989312
    1    7    2    3        0.0504848083
    1    7    2    6        0.0396808512
    1    7    2   10       -0.0077928560
    1    8    2    4        0.0394774262
    1    8    2    5       -0.0207283462
    1    9    2    4        0.0207283462
    1    9    2    5        0.0394774262
    1   10    2    2        0.0025836396
    1   10    2    7       -0.0278499634
    1    1    3    1        0.1458248872
    1    1    3    3        0.5109501231
    1    1    3    6       -0.0323186102
    1    1    3   10       -0.1484107488
    1    2    3    2        0.0255662934
    1    2    3    7        0.1299245036
    1    3    3    1        0.1069727591
    1    3    3    3        0.1371224488
    1    3    3    6       -0.0226612921
    1    3    3   10       -0.1053148433
    1    4    3    4        0.0106561124
    1    5    3    5        0.0106561124
    1    6    3    1       -0.0054904488
    1    6    3    3       -0.0003070763
    1    6    3    6        0.0178596735
    1    6    3   10        0.0145575461
    1    7    3    2        0.0505091268
    1    7    3    7        0.0494496392
    1    8    3    8        0.0064768113
    1    9    3    9        0.0064768113
    1   10    3    1       -0.0376446237
    1   10    3    3       -0.0389780028
    1   10    3    6        0.0142302461
    1   10    3   10        0.0510541806
    1    1    4    4        0.5401426807
    1    2    4    8        0.1059650607
    1    2    4    9        0.0556388974
    1    3    4    4        0.1177086179
    1    4    4    1        0.0976604141
    1    4    4    3        0.0107579118
    1    4    4    6       -0.0485037050
    1    4    4   10        0.0404019254
    1    6    4    4       -0.0170057344
    1    7    4    8        0.0251175027
    1    7    4    9        0.0131884052
    1    8    4    2        0.0395177528
    1    8    4    7        0.0043405378
    1    9    4    2        0.0207495204
    1    9    4    7        0.0022790789
    1   10    4    4        0.0133420742
    1    1    5    5        0.5401426807
    1    2    5    8       -0.0556388974
    1    2    5    9        0.1059650607
    1    3    5    5        0.1177086179
    1    5    5    1        0.0976604141
    1    5    5    3        0.0107579118
    1    5    5    6       -0.0485037050
    1    5    5   10        0.0404019254
    1    6    5    5       -0.0170057344
    1    7    5    8       -0.0131884052
    1    7    5    9        0.0251175027
    1    8    5    2       -0.0207495204
    1    8    5    7       -0.0022790789
    1    9    5    2        0.0395177528
    1    9    5    7        0.0043405378
    1   10    5    5        0.0133420742
    1    1    6    1        0.0203438323
    1    1    6    3       -0.0323186102
    1    1    6    6        0.5884180142
    1    1    6   10        0.0190042014
    1    2    6    2        0.1408386423
    1    2    6    7        0.0396341848
    1    3    6    1       -0.0054904488
    1    3    6    3       -0.0226630091
    1    3    6    6        0.1379228107
    1    3    6   10        0.0217267447
    1    4    6    4       -0.0485025714
    1    5    6    5       -0.0485025714
    1    6    6    1        0.0733668446
    1    6    6    3        0.0179311129
    1    6    6    6        0.0570831045
    1    6    6   10        0.0135901506
    1    7    6    2        0.0397462640
    1    7    6    7        0.0406567499
    1    8    6    8        0.0195112560
    1    9    6    9        0.0195112560
    1   10    6    1        0.0059612462
    1   10    6    3        0.0142369767
    1   10    6    6        0.0043730962
    1   10    6   10       -0.0212701315
    1    1    7    2        0.1329081366
    1    1    7    7        0.5714182505
    1    2    7    1        0.0506989312
    1    2    7    3        0.1299290435
    1    2    7    6        0.0395843499
    1    2    7   10       -0.0258776698
    1    3    7    2        0.0990472947
    1    3    7    7        0.1550187342
    1    4    7    8        0.0092992219
    1    4    7    9        0.0048827269
    1    5    7    8       -0.0048827269
    1    5    7    9        0.0092992219
    1    6    7    2        0.0152399098
    1    6    7    7        0.0520488073
    1    7    7    1        0.0685676036
    1    7    7    3        0.0495358528
    1    7    7    6        0.0406475131
    1    7    7   10       -0.0421793514
    1    8    7    4        0.0043096340
    1    8    7    5       -0.0022628523
    1    9    7    4        0.0022628523
    1    9    7    5        0.0043096340
    1   10    7    2       -0.0279041070
    1   10    7    7       -0.0344113368
    1    1    8    8        0.5651889123
    1    2    8    4        0.1059590992
    1    2    8    5       -0.0556357671
    1    3    8    8        0.1206274581
    1    4    8    2        0.0736047919
    1    4    8    7        0.0093254124
    1    5    8    2       -0.0386475451
    1    5    8    7       -0.0048964787
    1    6    8    8        0.0344901885
    1    7    8    4        0.0251127895
    1    7    8    5       -0.0131859304
    1    8    8    1        0.0589036725
    1    8    8    3        0.0065374642
    1    8    8    6        0.0195180315
    1    8    8   10        0.0224458617
    1   10    8    8        0.0145720868
    1    1    9    9        0.5651889123
    1    2    9    4        0.0556357671
    1    2    9    5        0.1059590992
    1    3    9    9        0.1206274581
    1    4    9    2        0.0386475451
    1    4    9    7        0.0048964787
    1    5    9    2        0.0736047919
    1    5    9    7        0.0093254124
    1    6    9    9        0.0344901885
    1    7    9    4        0.0131859304
    1    7    9    5        0.0251127895
    1    9    9    1        0.0589036725
    1    9    9    3        0.0065374642
    1    9    9    6        0.0195180315
    1    9    9   10        0.0224458617
    1   10    9    9        0.0145720868
    1    1   10    1       -0.0088278240
    1    1   10    3       -0.1484107488
    1    1   10    6        0.0190042014
    1    1   10   10        0.5668306180
    1    2   10    2        0.0157892570
    1    2   10    7       -0.0258531610
    1    3   10    1       -0.0376446237
    1    3   10    3       -0.1053162155
    1    3   10    6        0.0217299902
    1    3   10   10        0.1771531639
    1    4   10    4        0.0404530238
    1    5   10    5        0.0404530238
    1    6   10    1        0.0059612462
    1    6   10    3        0.0145675222
    1    6   10    6        0.0136150118
    1    6   10   10       -0.0165361319
    1    7   10    2       -0.0078224908
    1    7   10    7       -0.0421646463
    1    8   10    8        0.0224661596
    1    9   10    9        0.0224661596
    1   10   10    1        0.0483902558
    1   10   10    3        0.0511390007
    1   10   10    6       -0.0212703940
    1   10   10   10       -0.0552549174
    2    1    1    2        0.1677721105
    2    1    1    7        0.0506989312
    2    2    1    1        0.5746849775
    2    2    1    3        0.1271214398
    2    2    1    6        0.0740986223
    2    2    1   10        0.0025836396
    2    3    1    2        0.0255626167
    2    3    1    7        0.0504848083
    2    4    1    8        0.0394774262
    2    4    1    9        0.0207283462
    2    5    1    8       -0.0207283462
    2    5    1    9        0.0394774262
    2    6    1    2        0.1408210425
    2    6    1    7        0.0396808512
    2    7    1    1        0.1329081366
    2    7    1    3        0.0990184362
    2    7    1    6        0.0152243319
    2    7    1   10       -0.0278499634
    2    8    1    4        0.0735704269
    2    8    1    5       -0.0386295011
    2    9    1    4        0.0386295011
    2    9    1    5        0.0735704269
    2   10    1    2        0.0157860007
    2   10    1    7       -0.0077928560
    2    1    2    1        0.1656968708
[...]
    9    1    2    4        0.0207495204
    9    1    2    5        0.0395177528
    9    2    2    9        0.0925147767
    9    3    2    4        0.0017133544
    9    3    2    5        0.0032631075
    9    4    2    1        0.0556388974
    9    4    2    3        0.0061128179
    9    4    2    6        0.0392176938
    9    4    2   10        0.0084643134
    9    5    2    1        0.1059650607
    9    5    2    3        0.0116419476
    9    5    2    6        0.0746906482
    9    5    2   10        0.0161204037
    9    6    2    4        0.0065282522
    9    6    2    5        0.0124331478
    9    7    2    9        0.0108570734
    9    9    2    2        0.5783949270
    9    9    2    7        0.1122541807
    9   10    2    4        0.0080189373
    9   10    2    5        0.0152721787
    9    1    3    9        0.0065374642
    9    2    3    4        0.0031326923
    9    2    3    5        0.0059662565
    9    3    3    9        0.0140196500
    9    4    3    2        0.0061128179
    9    4    3    7        0.0417062380
    9    5    3    2        0.0116419476
    9    5    3    7        0.0794301155
    9    6    3    9        0.0013637864
    9    7    3    4        0.0091606215
    9    7    3    5        0.0174465322
    9    9    3    1        0.1206274581
    9    9    3    3        0.4848747759
    9    9    3    6       -0.0240033455
    9    9    3   10       -0.1179720345
    9   10    3    9       -0.0005375907
    9    1    4    2        0.0207283462
    9    1    4    7        0.0022628523
    9    2    4    1        0.0386295011
    9    2    4    3        0.0031326923
    9    2    4    6       -0.0096830826
    9    2    4   10        0.0155297582
    9    3    4    2        0.0017133544
    9    3    4    7        0.0061792596
    9    4    4    8        0.0411104252
    9    4    4    9        0.0358808486
    9    5    4    8        0.0640003152
    9    5    4    9        0.0411104252
    9    6    4    2        0.0065282522
    9    6    4    7        0.0006657288
    9    7    4    1        0.0048827269
    9    7    4    3        0.0091606215
    9    7    4    6       -0.0011437811
    9    7    4   10       -0.0004380475
    9    8    4    4        0.0184402202
    9    8    4    5        0.0127186413
    9    9    4    4        0.5209881950
    9    9    4    5        0.0184402202
    9   10    4    2        0.0080189373
    9   10    4    7       -0.0005603595
    9    1    5    2        0.0394774262
    9    1    5    7        0.0043096340
    9    2    5    1        0.0735704269
    9    2    5    3        0.0059662565
    9    2    5    6       -0.0184415667
    9    2    5   10        0.0295766424
    9    3    5    2        0.0032631075
    9    3    5    7        0.0117684866
    9    4    5    8       -0.0072907159
    9    4    5    9        0.0411104252
    9    5    5    8       -0.0411104252
    9    5    5    9        0.0925904479
    9    6    5    2        0.0124331478
    9    6    5    7        0.0012678899
    9    7    5    1        0.0092992219
    9    7    5    3        0.0174465322
    9    7    5    6       -0.0021783472
    9    7    5   10       -0.0008342677
    9    8    5    4        0.0127186413
    9    8    5    5       -0.0184402202
    9    9    5    4        0.0184402202
    9    9    5    5        0.5464254775
    9   10    5    2        0.0152721787
    9   10    5    7       -0.0010672125
    9    1    6    9        0.0195180315
    9    2    6    4       -0.0096830826
    9    2    6    5       -0.0184415667
    9    3    6    9        0.0013637864
    9    4    6    2        0.0392176938
    9    4    6    7        0.0096250542
    9    5    6    2        0.0746906482
    9    5    6    7        0.0183310507
    9    6    6    9        0.0209771326
    9    7    6    4       -0.0011437811
    9    7    6    5       -0.0021783472
    9    9    6    1        0.0344901885
    9    9    6    3       -0.0240033455
    9    9    6    6        0.5765172962
    9    9    6   10        0.0144268267
    9   10    6    9        0.0064483656
    9    1    7    4        0.0022790789
    9    1    7    5        0.0043405378
    9    2    7    9        0.0108570734
    9    3    7    4        0.0061792596
    9    3    7    5        0.0117684866
    9    4    7    1        0.0131884052
    9    4    7    3        0.0417062380
    9    4    7    6        0.0096250542
    9    4    7   10       -0.0067339563
    9    5    7    1        0.0251175027
    9    5    7    3        0.0794301155
    9    5    7    6        0.0183310507
    9    5    7   10       -0.0128249142
    9    6    7    4        0.0006657288
    9    6    7    5        0.0012678899
    9    7    7    9        0.0250402604
    9    9    7    2        0.1122541807
    9    9    7    7        0.5522410630
    9   10    7    4       -0.0005603595
    9   10    7    5       -0.0010672125
    9    4    8    4        0.0411104252
    9    4    8    5       -0.0072907159
    9    5    8    4        0.0640003152
    9    5    8    5       -0.0411104252
    9    8    8    9        0.0268890844
    9    9    8    8        0.5506631296
    9    1    9    1        0.0578116179
    9    1    9    3        0.0064768113
    9    1    9    6        0.0195112560
    9    1    9   10        0.0224661596
    9    2    9    2        0.0925147767
    9    2    9    7        0.0108570734
    9    3    9    1        0.0064768113
    9    3    9    3        0.0140196500
    9    3    9    6        0.0013637864
    9    3    9   10       -0.0005375907
    9    4    9    4        0.0358808486
    9    4    9    5        0.0411104252
    9    5    9    4        0.0411104252
    9    5    9    5        0.0925904479
    9    6    9    1        0.0195112560
    9    6    9    3        0.0013637864
    9    6    9    6        0.0209771326
    9    6    9   10        0.0064483656
    9    7    9    2        0.0108570734
    9    7    9    7        0.0250402604
    9    8    9    8        0.0268890844
    9    9    9    9        0.6044412984
    9   10    9    1        0.0224661596
    9   10    9    3       -0.0005375907
    9   10    9    6        0.0064483656
    9   10    9   10        0.0154580071
    9    1   10    9        0.0224458617
    9    2   10    4        0.0155297582
    9    2   10    5        0.0295766424
    9    3   10    9       -0.0005375907
    9    4   10    2        0.0084643134
    9    4   10    7       -0.0067339563
    9    5   10    2        0.0161204037
    9    5   10    7       -0.0128249142
    9    6   10    9        0.0064483656
    9    7   10    4       -0.0004380475
    9    7   10    5       -0.0008342677
    9    9   10    1        0.0145720868
    9    9   10    3       -0.1179720345
    9    9   10    6        0.0144268267
    9    9   10   10        0.5295951709
    9   10   10    9        0.0154580071
   10    1    1    1       -0.0088278240
   10    1    1    3       -0.0376446237
   10    1    1    6        0.0059612462
   10    1    1   10        0.0483902558
   10    2    1    2        0.0157892570
   10    2    1    7       -0.0078224908
   10    3    1    1       -0.1484107488
   10    3    1    3       -0.1053162155
   10    3    1    6        0.0145675222
   10    3    1   10        0.0511390007
   10    4    1    4        0.0404530238
   10    5    1    5        0.0404530238
   10    6    1    1        0.0190042014
   10    6    1    3        0.0217299902
   10    6    1    6        0.0136150118
   10    6    1   10       -0.0212703940
   10    7    1    2       -0.0258531610
   10    7    1    7       -0.0421646463
   10    8    1    8        0.0224661596
   10    9    1    9        0.0224661596
   10   10    1    1        0.5668306180
   10   10    1    3        0.1771531639
   10   10    1    6       -0.0165361319
   10   10    1   10       -0.0552549174
   10    1    2    2        0.0025836396
   10    1    2    7       -0.0279041070
   10    2    2    1        0.0157860007
   10    2    2    3       -0.0057475564
   10    2    2    6        0.0163678381
   10    2    2   10        0.0182690952
   10    3    2    2       -0.1227404726
   10    3    2    7       -0.0878848838
   10    4    2    8        0.0295766424
   10    4    2    9        0.0155297582
   10    5    2    8       -0.0155297582
   10    5    2    9        0.0295766424
   10    6    2    2        0.0253477182
   10    6    2    7        0.0150525877
   10    7    2    1       -0.0258776698
   10    7    2    3       -0.0314257812
   10    7    2    6       -0.0137993603
   10    7    2   10        0.0117379667
   10    8    2    4        0.0152721787
   10    8    2    5       -0.0080189373
   10    9    2    4        0.0080189373
   10    9    2    5        0.0152721787
   10   10    2    2        0.5323774281
   10   10    2    7        0.1435195630
   10    1    3    1       -0.0368778909
   10    1    3    3       -0.0389780028
   10    1    3    6        0.0142369767
   10    1    3   10        0.0511390007
   10    2    3    2       -0.0057475564
   10    2    3    7       -0.0054022287
   10    3    3    1       -0.1053148433
   10    3    3    3       -0.1515512045
   10    3    3    6        0.0294635513
   10    3    3   10        0.1250312389
   10    4    3    4       -0.0026051751
   10    5    3    5       -0.0026051751
   10    6    3    1        0.0217267447
   10    6    3    3        0.0257761689
   10    6    3    6       -0.0095969479
   10    6    3   10       -0.0286680985
   10    7    3    2       -0.0314257812
   10    7    3    7       -0.0337278126
   10    8    3    8       -0.0005375907
   10    9    3    9       -0.0005375907
   10   10    3    1        0.1771531639
   10   10    3    3        0.5385986717
   10   10    3    6       -0.0539202036
   10   10    3   10       -0.2045346772
   10    1    4    4        0.0133420742
   10    2    4    8        0.0161204037
   10    2    4    9        0.0084643134
   10    3    4    4       -0.1200256823
   10    4    4    1        0.0404019254
   10    4    4    3       -0.0026051751
   10    4    4    6       -0.0227413117
   10    4    4   10        0.0301405029
   10    6    4    4       -0.0011942530
   10    7    4    8       -0.0128249142
   10    7    4    9       -0.0067339563
   10    8    4    2        0.0152721787
   10    8    4    7       -0.0010672125
   10    9    4    2        0.0080189373
   10    9    4    7       -0.0005603595
   10   10    4    4        0.5272878215
   10    1    5    5        0.0133420742
   10    2    5    8       -0.0084643134
   10    2    5    9        0.0161204037
   10    3    5    5       -0.1200256823
   10    5    5    1        0.0404019254
   10    5    5    3       -0.0026051751
   10    5    5    6       -0.0227413117
   10    5    5   10        0.0301405029
   10    6    5    5       -0.0011942530
   10    7    5    8        0.0067339563
   10    7    5    9       -0.0128249142
   10    8    5    2       -0.0080189373
   10    8    5    7        0.0005603595
   10    9    5    2        0.0152721787
   10    9    5    7       -0.0010672125
   10   10    5    5        0.5272878215
   10    1    6    1        0.0060101819
   10    1    6    3        0.0142302461
   10    1    6    6        0.0043730962
   10    1    6   10       -0.0212703940
   10    2    6    2        0.0163678381
   10    2    6    7        0.0005437672
   10    3    6    1        0.0145575461
   10    3    6    3        0.0294635513
   10    3    6    6       -0.1344278026
   10    3    6   10       -0.0286680985
   10    4    6    4       -0.0227413117
   10    5    6    5       -0.0227413117
   10    6    6    1        0.0135901506
   10    6    6    3       -0.0095969479
   10    6    6    6        0.0228056278
   10    6    6   10        0.0234042318
   10    7    6    2       -0.0137993603
   10    7    6    7       -0.0180849412
   10    8    6    8        0.0064483656
   10    9    6    9        0.0064483656
   10   10    6    1       -0.0165361319
   10   10    6    3       -0.0539202036
   10   10    6    6        0.5533535728
   10   10    6   10        0.0349457475
   10    1    7    2       -0.0278499634
   10    1    7    7       -0.0344113368
   10    2    7    1       -0.0077928560
   10    2    7    3       -0.0054022287
   10    2    7    6        0.0005437672
   10    2    7   10        0.0117379667
   10    3    7    2       -0.0878848838
   10    3    7    7       -0.1572703596
   10    4    7    8       -0.0008342677
   10    4    7    9       -0.0004380475
   10    5    7    8        0.0004380475
   10    5    7    9       -0.0008342677
   10    6    7    2        0.0150525877
   10    6    7    7        0.0249817083
   10    7    7    1       -0.0421793514
   10    7    7    3       -0.0337278126
   10    7    7    6       -0.0180849412
   10    7    7   10        0.0401323986
   10    8    7    4       -0.0010672125
   10    8    7    5        0.0005603595
   10    9    7    4       -0.0005603595
   10    9    7    5       -0.0010672125
   10   10    7    2        0.1435195630
   10   10    7    7        0.5665538135
   10    1    8    8        0.0145720868
   10    2    8    4        0.0161204037
   10    2    8    5       -0.0084643134
   10    3    8    8       -0.1179720345
   10    4    8    2        0.0295766424
   10    4    8    7       -0.0008342677
   10    5    8    2       -0.0155297582
   10    5    8    7        0.0004380475
   10    6    8    8        0.0144268267
   10    7    8    4       -0.0128249142
   10    7    8    5        0.0067339563
   10    8    8    1        0.0224458617
   10    8    8    3       -0.0005375907
   10    8    8    6        0.0064483656
   10    8    8   10        0.0154580071
   10   10    8    8        0.5295951709
   10    1    9    9        0.0145720868
   10    2    9    4        0.0084643134
   10    2    9    5        0.0161204037
   10    3    9    9       -0.1179720345
   10    4    9    2        0.0155297582
   10    4    9    7       -0.0004380475
   10    5    9    2        0.0295766424
   10    5    9    7       -0.0008342677
   10    6    9    9        0.0144268267
   10    7    9    4       -0.0067339563
   10    7    9    5       -0.0128249142
   10    9    9    1        0.0224458617
   10    9    9    3       -0.0005375907
   10    9    9    6        0.0064483656
   10    9    9   10        0.0154580071
   10   10    9    9        0.5295951709
   10    1   10    1        0.0486069634
   10    1   10    3        0.0510541806
   10    1   10    6       -0.0212701315
   10    1   10   10       -0.0552549174
   10    2   10    2        0.0182690952
   10    2   10    7        0.0117379667
   10    3   10    1        0.0510541806
   10    3   10    3        0.1250312389
   10    3   10    6       -0.0286680985
   10    3   10   10       -0.2045346772
   10    4   10    4        0.0301405029
   10    5   10    5        0.0301405029
   10    6   10    1       -0.0212701315
   10    6   10    3       -0.0286680985
   10    6   10    6        0.0234042318
   10    6   10   10        0.0349457475
   10    7   10    2        0.0117379667
   10    7   10    7        0.0401323986
   10    8   10    8        0.0154580071
   10    9   10    9        0.0154580071
   10   10   10    1       -0.0552549174
   10   10   10    3       -0.2045346772
   10   10   10    6        0.0349457475
   10   10   10   10        0.6304641311
 end_two_electron_integrals

 Parallel integral file used      20 records with       0 large values


 Task  times  cpu:       36.3s     wall:       39.3s


                                NWChem Input Module
                                -------------------


 Summary of allocated global arrays
-----------------------------------
  No active global arrays


MA_summarize_allocated_blocks: starting scan ...
MA_summarize_allocated_blocks: scan completed: 0 heap blocks, 0 stack blocks
MA usage statistics:

	allocation statistics:
					      heap	     stack
					      ----	     -----
	current number of blocks	         0	         0
	maximum number of blocks	        18	        42
	current total bytes		         0	         0
	maximum total bytes		  51983048	9994007128
	maximum total K-bytes		     51984	   9994008
	maximum total M-bytes		        52	      9995


                                     CITATION
                                     --------
                Please cite the following reference when publishing
                           results obtained with NWChem:

          E. Apra, E. J. Bylaska, W. A. de Jong, N. Govind, K. Kowalski,
       T. P. Straatsma, M. Valiev, H. J. J. van Dam, Y. Alexeev, J. Anchell,
       V. Anisimov, F. W. Aquino, R. Atta-Fynn, J. Autschbach, N. P. Bauman,
     J. C. Becca, D. E. Bernholdt, K. Bhaskaran-Nair, S. Bogatko, P. Borowski,
         J. Boschen, J. Brabec, A. Bruner, E. Cauet, Y. Chen, G. N. Chuev,
      C. J. Cramer, J. Daily, M. J. O. Deegan, T. H. Dunning Jr., M. Dupuis,
   K. G. Dyall, G. I. Fann, S. A. Fischer, A. Fonari, H. Fruchtl, L. Gagliardi,
      J. Garza, N. Gawande, S. Ghosh, K. Glaesemann, A. W. Gotz, J. Hammond,
       V. Helms, E. D. Hermes, K. Hirao, S. Hirata, M. Jacquelin, L. Jensen,
   B. G. Johnson, H. Jonsson, R. A. Kendall, M. Klemm, R. Kobayashi, V. Konkov,
      S. Krishnamoorthy, M. Krishnan, Z. Lin, R. D. Lins, R. J. Littlefield,
      A. J. Logsdail, K. Lopata, W. Ma, A. V. Marenich, J. Martin del Campo,
   D. Mejia-Rodriguez, J. E. Moore, J. M. Mullin, T. Nakajima, D. R. Nascimento,
    J. A. Nichols, P. J. Nichols, J. Nieplocha, A. Otero-de-la-Roza, B. Palmer,
    A. Panyala, T. Pirojsirikul, B. Peng, R. Peverati, J. Pittner, L. Pollack,
   R. M. Richard, P. Sadayappan, G. C. Schatz, W. A. Shelton, D. W. Silverstein,
   D. M. A. Smith, T. A. Soares, D. Song, M. Swart, H. L. Taylor, G. S. Thomas,
            V. Tipparaju, D. G. Truhlar, K. Tsemekhman, T. Van Voorhis,
      A. Vazquez-Mayagoitia, P. Verma, O. Villa, A. Vishnu, K. D. Vogiatzis,
        D. Wang, J. H. Weare, M. J. Williamson, T. L. Windus, K. Wolinski,
        A. T. Wong, Q. Wu, C. Yang, Q. Yu, M. Zacharias, Z. Zhang, Y. Zhao,
                                and R. J. Harrison
                        "NWChem: Past, present, and future
                         J. Chem. Phys. 152, 184102 (2020)
                               doi:10.1063/5.0004997

                                      AUTHORS
                                      -------
  E. Apra, E. J. Bylaska, N. Govind, K. Kowalski, M. Valiev, D. Mejia-Rodriguez,
       A. Kunitsa, N. P. Bauman, A. Panyala, W. A. de Jong, T. P. Straatsma,
        H. J. J. van Dam, D. Wang, T. L. Windus, J. Hammond, J. Autschbach,
    K. Bhaskaran-Nair, J. Brabec, K. Lopata, S. A. Fischer, S. Krishnamoorthy,
     M. Jacquelin, W. Ma, M. Klemm, O. Villa, Y. Chen, V. Anisimov, F. Aquino,
    S. Hirata, M. T. Hackler, Eric Hermes, L. Jensen, J. E. Moore, J. C. Becca,
      V. Konjkov, T. Risthaus, M. Malagoli, A. Marenich, A. Otero-de-la-Roza,
        J. Mullin, P. Nichols, R. Peverati, J. Pittner, Y. Zhao, P.-D. Fan,
        A. Fonari, M. J. Williamson, R. J. Harrison, J. R. Rehr, M. Dupuis,
     D. Silverstein, D. M. A. Smith, J. Nieplocha, V. Tipparaju, M. Krishnan,
     B. E. Van Kuiken, A. Vazquez-Mayagoitia, M. Swart, Q. Wu, T. Van Voorhis,
     A. A. Auer, M. Nooijen, L. D. Crosby, E. Brown, G. Cisneros, G. I. Fann,
   H. Fruchtl, J. Garza, K. Hirao, R. A. Kendall, J. A. Nichols, K. Tsemekhman,
    K. Wolinski, J. Anchell, D. E. Bernholdt, P. Borowski, T. Clark, D. Clerc,
   H. Dachsel, M. J. O. Deegan, K. Dyall, D. Elwood, E. Glendening, M. Gutowski,
   A. C. Hess, J. Jaffe, B. G. Johnson, J. Ju, R. Kobayashi, R. Kutteh, Z. Lin,
   R. Littlefield, X. Long, B. Meng, T. Nakajima, S. Niu, L. Pollack, M. Rosing,
   K. Glaesemann, G. Sandrone, M. Stave, H. Taylor, G. Thomas, J. H. van Lenthe,
                               A. T. Wong, Z. Zhang.

 Total times  cpu:       39.6s     wall:       43.3s
