 argument  1 = input.nw
  NWChem w/ OpenMP: maximum threads =    1



============================== echo of input deck ==============================
 echo
 start H2
 title "H2"

 memory total 24 gb

 geometry units bohr
 symmetry c1
        H  0.00000000  0.00000000  0.00000000
        H  0.00000000  3.35  0.00000000
 end

 basis
   * library cc-pVQZ
 end

 mcscf
   active  10
   actelec 2
   multiplicity 1
   maxiter 40
   vectors input H2.mos
   vectors output H2.mos
 end

 task mcscf

 scf
   vectors input H2.mos
   vectors output H2-3.35.mos
   noscf
 end

 tce
   2eorb
   2emet 13
   ccsd
   maxiter 300
   lshift 0.8
 end

# set tce:print_integrals T
# set tce:qorb 10
# set tce:qela 1
# set tce:qelb 1

 set tce:qducc T
 set tce:nactv 9
 set tce:nonhf T
 set tce:ducc_model 3

 set tce:printtol 0.02

 task tce
================================================================================


                                         
                                         


             Northwest Computational Chemistry Package (NWChem) 7.0.1
             --------------------------------------------------------


                    Environmental Molecular Sciences Laboratory
                       Pacific Northwest National Laboratory
                                Richland, WA 99352

                              Copyright (c) 1994-2020
                       Pacific Northwest National Laboratory
                            Battelle Memorial Institute

             NWChem is an open-source computational chemistry package
                        distributed under the terms of the
                      Educational Community License (ECL) 2.0
             A copy of the license is included with this distribution
                              in the LICENSE.TXT file

                                  ACKNOWLEDGMENT
                                  --------------

            This software and its documentation were developed at the
            EMSL at Pacific Northwest National Laboratory, a multiprogram
            national laboratory, operated for the U.S. Department of Energy
            by Battelle under Contract Number DE-AC05-76RL01830. Support
            for this work was provided by the Department of Energy Office
            of Biological and Environmental Research, Office of Basic
            Energy Sciences, and the Office of Advanced Scientific Computing.


           Job information
           ---------------

    hostname        = WE46210
    program         = /home/baum612/code/nwchem/bin/LINUX64/nwchem
    date            = Fri Nov 10 22:15:13 2023

    compiled        = Mon_Nov_06_10:06:57_2023
    source          = /home/baum612/code/nwchem
    nwchem branch   = 7.0.0
    nwchem revision = nwchem_on_git-4191-g39d87d64de
    ga revision     = 5.8.1
    use scalapack   = F
    input           = input.nw
    prefix          = H2.
    data base       = ./H2.db
    status          = startup
    nproc           =        1
    time left       =     -1s



           Memory information
           ------------------

    heap     =  805306362 doubles =   6144.0 Mbytes
    stack    =  805306367 doubles =   6144.0 Mbytes
    global   = 1610612736 doubles =  12288.0 Mbytes (distinct from heap & stack)
    total    = 3221225465 doubles =  24576.0 Mbytes
    verify   = yes
    hardfail = no 


           Directory information
           ---------------------

  0 permanent = .
  0 scratch   = .




                                NWChem Input Module
                                -------------------


                                        H2
                                        --
 Turning off AUTOSYM since
 SYMMETRY directive was detected!


          ------
          auto-z
          ------
     1 autoz failed with cvr_scaling = 1.2 changing to 1.3
     2 autoz failed with cvr_scaling = 1.3 changing to 1.4
     3 autoz failed with cvr_scaling = 1.4 changing to 1.5
     4 autoz failed with cvr_scaling = 1.5 changing to 1.6
     5 autoz failed with cvr_scaling = 1.6 changing to 1.7

 AUTOZ failed to generate good internal coordinates.
 Cartesian coordinates will be used in optimizations.



                             Geometry "geometry" -> ""
                             -------------------------

 Output coordinates in a.u. (scale by  1.000000000 to convert to a.u.)

  No.       Tag          Charge          X              Y              Z
 ---- ---------------- ---------- -------------- -------------- --------------
    1 H                    1.0000     0.00000000    -1.67500000     0.00000000
    2 H                    1.0000     0.00000000     1.67500000     0.00000000

      Atomic Mass 
      ----------- 

      H                  1.007825


 Effective nuclear repulsion energy (a.u.)       0.2985074627

            Nuclear Dipole moment (a.u.) 
            ----------------------------
        X                 Y               Z
 ---------------- ---------------- ----------------
     0.0000000000     0.0000000000     0.0000000000


            XYZ format geometry
            -------------------
     2
 geometry
 H                     0.00000000    -0.88637189     0.00000000
 H                     0.00000000     0.88637189     0.00000000



 Summary of "ao basis" -> "" (cartesian)
 ------------------------------------------------------------------------------
       Tag                 Description            Shells   Functions and Types
 ---------------- ------------------------------  ------  ---------------------
 *                          cc-pVQZ                   on all atoms 


                      Basis "ao basis" -> "ao basis" (cartesian)
                      -----
  H (Hydrogen)
  ------------
            Exponent  Coefficients 
       -------------- ---------------------------------------------------------
  1 S  8.26400000E+01  0.002006
  1 S  1.24100000E+01  0.015343
  1 S  2.82400000E+00  0.075579

  2 S  7.97700000E-01  1.000000

  3 S  2.58100000E-01  1.000000

  4 S  8.98900000E-02  1.000000

  5 P  2.29200000E+00  1.000000

  6 P  8.38000000E-01  1.000000

  7 P  2.92000000E-01  1.000000

  8 D  2.06200000E+00  1.000000

  9 D  6.62000000E-01  1.000000

 10 F  1.39700000E+00  1.000000



 Summary of "ao basis" -> "ao basis" (cartesian)
 ------------------------------------------------------------------------------
       Tag                 Description            Shells   Functions and Types
 ---------------- ------------------------------  ------  ---------------------
 H                          cc-pVQZ                 10       35   4s3p2d1f



                            NWChem Direct MCSCF Module
                            --------------------------


                                        H2


     -----------------------------------
       Basis functions:             70
       Inactive shells:              0
       Active shells:               10
       Active electrons:             2
       Symmetry:                    a       
       Multiplicity:                 1
       Orbital rotations:          600
     -----------------------------------

     -----------------------------------
       E2 extrapolation:             F
       Conjugacy:                    T
       Micro CI relax:               T
       Canonical orbitals:           T
       Maximum iterations:          40
       Converge threshold:    1.00E-04
       Conjugacy resets:            20
       Initial levelshift:        0.10
     -----------------------------------

 Loading old vectors from job with title :

H2


   input molecular orbitals = ./H2.mos
  output molecular orbtials = ./H2.mos

       No. of determinants:           100


  Starting Orbital Energies
    -0.415399    -0.088154    -0.001582    -0.001211    -0.001211    -0.000162
    -0.000088    -0.000083    -0.000083    -0.000038     0.480028     0.815740
     1.041343     1.403917     1.403917     1.662723     1.662723     1.882180
     1.895345     1.895345     2.023692     2.023692     2.159658     2.159658
     2.268281     2.496942     2.496942     2.934185     2.981039     3.314103
     4.393190     4.393190     4.449081     4.449081     4.543201     4.667821
     5.788497     5.866628     5.866628     6.004833     6.004833     6.061944
     6.061944     6.072482     6.072482     6.133931     6.133931     6.396583
     6.396583     7.043269     8.071744     8.071744     8.096117     8.096117
     8.181521     8.181521     8.346099     8.460294     8.460294     9.171886
     9.622594     9.709460     9.709460     9.734695     9.737552     9.737552
     9.976605     9.979057    22.717633    23.188321

  Orbital Symmetry Irreps
a    a    a    a    a    a    a    a    a    a    a    a    a    a    a   
a    a    a    a    a    a    a    a    a    a    a    a    a    a    a   
a    a    a    a    a    a    a    a    a    a    a    a    a    a    a   
a    a    a    a    a    a    a    a    a    a    a    a    a    a    a   
a    a    a    a    a    a    a    a    a    a   

 Integral file          = ./H2.aoints.0
 Record size in doubles =  65536        No. of integs per rec  =  43688
 Max. records in memory =     99        Max. records in file   = 280194
 No. of bits per label  =      8        No. of bits per value  =     64


 #quartets = 2.214D+04 #integrals = 8.496D+05 #direct =  0.0% #cached =100.0%




          %%%%% MacroIteration   1 %%%%%


          Number of sigma calls:       13
                       o<<<<< (aa):             0.00
                       o<<<<< (bb):             0.00
                       o<<<<< (ab):             0.01
                       o<<<<< (total)           0.01
                       o<<<<< (aa) ff           0.00
                       o<<<<< (aa) gop          0.00
                       o<<<<< (aa) dot          0.00
                       o<<<<< (ab) str          0.00
                       o<<<<< (ab) gath         0.00
                       o<<<<< (ab) dotab        0.00
                       o<<<<< (ab) scat         0.00
                       o<<<<< (ab) sync         0.00
                       o<<<<< Density           0.00
                       o<<<<< Density one       0.00
                       o<<<<< Density two       0.00
                       o<<<<< Density ab        0.00
                       o<<<<< Spin adapt        0.00
                       o<<<<< Symm adapt        0.00

                       o<<<<< (ab) max sync:      0.00

           >>>| Valence CI:             -1.335739087114
           >>>| MCSCF energy:           -1.037231624427
           >>>| Gradient norm:          0.334673082D-02
     --- Warning:  406 Hessian diagonals < 0.05 ---

                              ----- Line search ------

        step       energy         lsg     num-lsg   num-lsh   lsrat    time
      ------- ---------------- --------- --------- --------- ------- --------
       0.0000      -1.03723162 -1.91D-06  0.00D+00  0.00D+00 0.0D+00      0.4

          Number of sigma calls:       12
                       o<<<<< (aa):             0.00
                       o<<<<< (bb):             0.00
                       o<<<<< (ab):             0.01
                       o<<<<< (total)           0.01
                       o<<<<< (aa) ff           0.00
                       o<<<<< (aa) gop          0.00
                       o<<<<< (aa) dot          0.00
                       o<<<<< (ab) str          0.00
                       o<<<<< (ab) gath         0.00
                       o<<<<< (ab) dotab        0.00
                       o<<<<< (ab) scat         0.00
                       o<<<<< (ab) sync         0.00
                       o<<<<< Density           0.00
                       o<<<<< Density one       0.00
                       o<<<<< Density two       0.00
                       o<<<<< Density ab        0.00
                       o<<<<< Spin adapt        0.00
                       o<<<<< Symm adapt        0.00

                       o<<<<< (ab) max sync:      0.00
       1.0000      -1.03723285 -5.44D-07 -5.44D-07  1.36D-06 2.9D-01      0.6

          Number of sigma calls:       11
                       o<<<<< (aa):             0.00
                       o<<<<< (bb):             0.00
                       o<<<<< (ab):             0.01
                       o<<<<< (total)           0.01
                       o<<<<< (aa) ff           0.00
                       o<<<<< (aa) gop          0.00
                       o<<<<< (aa) dot          0.00
                       o<<<<< (ab) str          0.00
                       o<<<<< (ab) gath         0.00
                       o<<<<< (ab) dotab        0.00
                       o<<<<< (ab) scat         0.00
                       o<<<<< (ab) sync         0.00
                       o<<<<< Density           0.00
                       o<<<<< Density one       0.00
                       o<<<<< Density two       0.00
                       o<<<<< Density ab        0.00
                       o<<<<< Spin adapt        0.00
                       o<<<<< Symm adapt        0.00

                       o<<<<< (ab) max sync:      0.00
       1.3988      -1.03723296  5.40D-10  5.16D-10  1.37D-06 2.8D-04      0.8
     --- Orbitals canonicalized ---



          %%%%% MacroIteration   2 %%%%%


          Number of sigma calls:       13
                       o<<<<< (aa):             0.00
                       o<<<<< (bb):             0.00
                       o<<<<< (ab):             0.01
                       o<<<<< (total)           0.01
                       o<<<<< (aa) ff           0.00
                       o<<<<< (aa) gop          0.00
                       o<<<<< (aa) dot          0.00
                       o<<<<< (ab) str          0.00
                       o<<<<< (ab) gath         0.00
                       o<<<<< (ab) dotab        0.00
                       o<<<<< (ab) scat         0.00
                       o<<<<< (ab) sync         0.00
                       o<<<<< Density           0.00
                       o<<<<< Density one       0.00
                       o<<<<< Density two       0.00
                       o<<<<< Density ab        0.00
                       o<<<<< Spin adapt        0.00
                       o<<<<< Symm adapt        0.00

                       o<<<<< (ab) max sync:      0.00

           >>>| Valence CI:             -1.335740421918
           >>>| MCSCF energy:           -1.037232959231
           >>>| Gradient norm:          0.108375524D-02
     --- Warning:  406 Hessian diagonals < 0.05 ---
     --- Conjugacy reset ---

                              ----- Line search ------

        step       energy         lsg     num-lsg   num-lsh   lsrat    time
      ------- ---------------- --------- --------- --------- ------- --------
       0.0000      -1.03723296 -1.89D-07  0.00D+00  0.00D+00 0.0D+00      1.1

          Number of sigma calls:       10
                       o<<<<< (aa):             0.00
                       o<<<<< (bb):             0.00
                       o<<<<< (ab):             0.01
                       o<<<<< (total)           0.01
                       o<<<<< (aa) ff           0.00
                       o<<<<< (aa) gop          0.00
                       o<<<<< (aa) dot          0.00
                       o<<<<< (ab) str          0.00
                       o<<<<< (ab) gath         0.00
                       o<<<<< (ab) dotab        0.00
                       o<<<<< (ab) scat         0.00
                       o<<<<< (ab) sync         0.00
                       o<<<<< Density           0.00
                       o<<<<< Density one       0.00
                       o<<<<< Density two       0.00
                       o<<<<< Density ab        0.00
                       o<<<<< Spin adapt        0.00
                       o<<<<< Symm adapt        0.00

                       o<<<<< (ab) max sync:      0.00
       1.0000      -1.03723308 -5.54D-08 -5.55D-08  1.33D-07 2.9D-01      1.3

          Number of sigma calls:        9
                       o<<<<< (aa):             0.00
                       o<<<<< (bb):             0.00
                       o<<<<< (ab):             0.01
                       o<<<<< (total)           0.02
                       o<<<<< (aa) ff           0.00
                       o<<<<< (aa) gop          0.00
                       o<<<<< (aa) dot          0.00
                       o<<<<< (ab) str          0.00
                       o<<<<< (ab) gath         0.00
                       o<<<<< (ab) dotab        0.00
                       o<<<<< (ab) scat         0.00
                       o<<<<< (ab) sync         0.00
                       o<<<<< Density           0.00
                       o<<<<< Density one       0.00
                       o<<<<< Density two       0.00
                       o<<<<< Density ab        0.00
                       o<<<<< Spin adapt        0.00
                       o<<<<< Symm adapt        0.00

                       o<<<<< (ab) max sync:      0.00
       1.4153      -1.03723309  5.14D-11  4.85D-11  1.34D-07 2.7D-04      1.6



          %%%%% MacroIteration   3 %%%%%


          Number of sigma calls:        1
                       o<<<<< (aa):             0.00
                       o<<<<< (bb):             0.00
                       o<<<<< (ab):             0.00
                       o<<<<< (total)           0.00
                       o<<<<< (aa) ff           0.00
                       o<<<<< (aa) gop          0.00
                       o<<<<< (aa) dot          0.00
                       o<<<<< (ab) str          0.00
                       o<<<<< (ab) gath         0.00
                       o<<<<< (ab) dotab        0.00
                       o<<<<< (ab) scat         0.00
                       o<<<<< (ab) sync         0.00
                       o<<<<< Density           0.00
                       o<<<<< Density one       0.00
                       o<<<<< Density two       0.00
                       o<<<<< Density ab        0.00
                       o<<<<< Spin adapt        0.00
                       o<<<<< Symm adapt        0.00

                       o<<<<< (ab) max sync:      0.00

           >>>| Valence CI:             -1.335740555621
           >>>| MCSCF energy:           -1.037233092935
           >>>| Gradient norm:          0.424314367D-03
     --- Warning:  406 Hessian diagonals < 0.05 ---

                              ----- Line search ------

        step       energy         lsg     num-lsg   num-lsh   lsrat    time
      ------- ---------------- --------- --------- --------- ------- --------
       0.0000      -1.03723309 -1.65D-08  0.00D+00  0.00D+00 0.0D+00      1.7

          Number of sigma calls:        8
                       o<<<<< (aa):             0.00
                       o<<<<< (bb):             0.00
                       o<<<<< (ab):             0.00
                       o<<<<< (total)           0.00
                       o<<<<< (aa) ff           0.00
                       o<<<<< (aa) gop          0.00
                       o<<<<< (aa) dot          0.00
                       o<<<<< (ab) str          0.00
                       o<<<<< (ab) gath         0.00
                       o<<<<< (ab) dotab        0.00
                       o<<<<< (ab) scat         0.00
                       o<<<<< (ab) sync         0.00
                       o<<<<< Density           0.00
                       o<<<<< Density one       0.00
                       o<<<<< Density two       0.00
                       o<<<<< Density ab        0.00
                       o<<<<< Spin adapt        0.00
                       o<<<<< Symm adapt        0.00

                       o<<<<< (ab) max sync:      0.00
       1.0000      -1.03723310 -4.83D-09 -4.83D-09  1.17D-08 2.9D-01      1.8

          Number of sigma calls:        7
                       o<<<<< (aa):             0.00
                       o<<<<< (bb):             0.00
                       o<<<<< (ab):             0.01
                       o<<<<< (total)           0.01
                       o<<<<< (aa) ff           0.00
                       o<<<<< (aa) gop          0.00
                       o<<<<< (aa) dot          0.00
                       o<<<<< (ab) str          0.00
                       o<<<<< (ab) gath         0.00
                       o<<<<< (ab) dotab        0.00
                       o<<<<< (ab) scat         0.00
                       o<<<<< (ab) sync         0.00
                       o<<<<< Density           0.00
                       o<<<<< Density one       0.00
                       o<<<<< Density two       0.00
                       o<<<<< Density ab        0.00
                       o<<<<< Spin adapt        0.00
                       o<<<<< Symm adapt        0.00

                       o<<<<< (ab) max sync:      0.00
       1.4135      -1.03723310  2.05D-13  1.92D-13  1.17D-08 1.2D-05      1.9



          %%%%% MacroIteration   4 %%%%%


          Number of sigma calls:        1
                       o<<<<< (aa):             0.00
                       o<<<<< (bb):             0.00
                       o<<<<< (ab):             0.00
                       o<<<<< (total)           0.00
                       o<<<<< (aa) ff           0.00
                       o<<<<< (aa) gop          0.00
                       o<<<<< (aa) dot          0.00
                       o<<<<< (ab) str          0.00
                       o<<<<< (ab) gath         0.00
                       o<<<<< (ab) dotab        0.00
                       o<<<<< (ab) scat         0.00
                       o<<<<< (ab) sync         0.00
                       o<<<<< Density           0.00
                       o<<<<< Density one       0.00
                       o<<<<< Density two       0.00
                       o<<<<< Density ab        0.00
                       o<<<<< Spin adapt        0.00
                       o<<<<< Symm adapt        0.00

                       o<<<<< (ab) max sync:      0.00

           >>>| Valence CI:             -1.335740567284
           >>>| MCSCF energy:           -1.037233104597
           >>>| Gradient norm:          0.179713702D-03
     --- Warning:  406 Hessian diagonals < 0.05 ---

                              ----- Line search ------

        step       energy         lsg     num-lsg   num-lsh   lsrat    time
      ------- ---------------- --------- --------- --------- ------- --------
       0.0000      -1.03723310 -5.96D-08  0.00D+00  0.00D+00 0.0D+00      2.3

          Number of sigma calls:        9
                       o<<<<< (aa):             0.00
                       o<<<<< (bb):             0.00
                       o<<<<< (ab):             0.01
                       o<<<<< (total)           0.01
                       o<<<<< (aa) ff           0.00
                       o<<<<< (aa) gop          0.00
                       o<<<<< (aa) dot          0.00
                       o<<<<< (ab) str          0.00
                       o<<<<< (ab) gath         0.00
                       o<<<<< (ab) dotab        0.00
                       o<<<<< (ab) scat         0.00
                       o<<<<< (ab) sync         0.00
                       o<<<<< Density           0.00
                       o<<<<< Density one       0.00
                       o<<<<< Density two       0.00
                       o<<<<< Density ab        0.00
                       o<<<<< Spin adapt        0.00
                       o<<<<< Symm adapt        0.00

                       o<<<<< (ab) max sync:      0.00
       1.0000      -1.03723316 -4.39D-08 -4.39D-08  1.57D-08 7.4D-01      2.5

          Number of sigma calls:       10
                       o<<<<< (aa):             0.00
                       o<<<<< (bb):             0.00
                       o<<<<< (ab):             0.01
                       o<<<<< (total)           0.01
                       o<<<<< (aa) ff           0.00
                       o<<<<< (aa) gop          0.00
                       o<<<<< (aa) dot          0.00
                       o<<<<< (ab) str          0.00
                       o<<<<< (ab) gath         0.00
                       o<<<<< (ab) dotab        0.00
                       o<<<<< (ab) scat         0.00
                       o<<<<< (ab) sync         0.00
                       o<<<<< Density           0.00
                       o<<<<< Density one       0.00
                       o<<<<< Density two       0.00
                       o<<<<< Density ab        0.00
                       o<<<<< Spin adapt        0.00
                       o<<<<< Symm adapt        0.00

                       o<<<<< (ab) max sync:      0.00
       3.7967      -1.03723322  6.43D-10  5.72D-10  1.59D-08 1.1D-02      2.7



          %%%%% MacroIteration   5 %%%%%


          Number of sigma calls:        1
                       o<<<<< (aa):             0.00
                       o<<<<< (bb):             0.00
                       o<<<<< (ab):             0.00
                       o<<<<< (total)           0.00
                       o<<<<< (aa) ff           0.00
                       o<<<<< (aa) gop          0.00
                       o<<<<< (aa) dot          0.00
                       o<<<<< (ab) str          0.00
                       o<<<<< (ab) gath         0.00
                       o<<<<< (ab) dotab        0.00
                       o<<<<< (ab) scat         0.00
                       o<<<<< (ab) sync         0.00
                       o<<<<< Density           0.00
                       o<<<<< Density one       0.00
                       o<<<<< Density two       0.00
                       o<<<<< Density ab        0.00
                       o<<<<< Spin adapt        0.00
                       o<<<<< Symm adapt        0.00

                       o<<<<< (ab) max sync:      0.00

           >>>| Valence CI:             -1.335740679808
           >>>| MCSCF energy:           -1.037233217121
           >>>| Gradient norm:          0.140203468D-03
     --- Warning:  406 Hessian diagonals < 0.05 ---

                              ----- Line search ------

        step       energy         lsg     num-lsg   num-lsh   lsrat    time
      ------- ---------------- --------- --------- --------- ------- --------
       0.0000      -1.03723322 -1.14D-08  0.00D+00  0.00D+00 0.0D+00      2.9

          Number of sigma calls:        9
                       o<<<<< (aa):             0.00
                       o<<<<< (bb):             0.00
                       o<<<<< (ab):             0.00
                       o<<<<< (total)           0.00
                       o<<<<< (aa) ff           0.00
                       o<<<<< (aa) gop          0.00
                       o<<<<< (aa) dot          0.00
                       o<<<<< (ab) str          0.00
                       o<<<<< (ab) gath         0.00
                       o<<<<< (ab) dotab        0.00
                       o<<<<< (ab) scat         0.00
                       o<<<<< (ab) sync         0.00
                       o<<<<< Density           0.00
                       o<<<<< Density one       0.00
                       o<<<<< Density two       0.00
                       o<<<<< Density ab        0.00
                       o<<<<< Spin adapt        0.00
                       o<<<<< Symm adapt        0.00

                       o<<<<< (ab) max sync:      0.00
       1.0000      -1.03723323 -5.25D-09 -5.25D-09  6.18D-09 4.6D-01      3.0

          Number of sigma calls:        9
                       o<<<<< (aa):             0.00
                       o<<<<< (bb):             0.00
                       o<<<<< (ab):             0.01
                       o<<<<< (total)           0.01
                       o<<<<< (aa) ff           0.00
                       o<<<<< (aa) gop          0.00
                       o<<<<< (aa) dot          0.00
                       o<<<<< (ab) str          0.00
                       o<<<<< (ab) gath         0.00
                       o<<<<< (ab) dotab        0.00
                       o<<<<< (ab) scat         0.00
                       o<<<<< (ab) sync         0.00
                       o<<<<< Density           0.00
                       o<<<<< Density one       0.00
                       o<<<<< Density two       0.00
                       o<<<<< Density ab        0.00
                       o<<<<< Spin adapt        0.00
                       o<<<<< Symm adapt        0.00

                       o<<<<< (ab) max sync:      0.00
       1.8496      -1.03723323 -3.13D-12 -2.88D-12  6.18D-09 2.7D-04      3.1



          %%%%% MacroIteration   6 %%%%%


          Number of sigma calls:        1
                       o<<<<< (aa):             0.00
                       o<<<<< (bb):             0.00
                       o<<<<< (ab):             0.00
                       o<<<<< (total)           0.00
                       o<<<<< (aa) ff           0.00
                       o<<<<< (aa) gop          0.00
                       o<<<<< (aa) dot          0.00
                       o<<<<< (ab) str          0.00
                       o<<<<< (ab) gath         0.00
                       o<<<<< (ab) dotab        0.00
                       o<<<<< (ab) scat         0.00
                       o<<<<< (ab) sync         0.00
                       o<<<<< Density           0.00
                       o<<<<< Density one       0.00
                       o<<<<< Density two       0.00
                       o<<<<< Density ab        0.00
                       o<<<<< Spin adapt        0.00
                       o<<<<< Symm adapt        0.00

                       o<<<<< (ab) max sync:      0.00

           >>>| Valence CI:             -1.335740690379
           >>>| MCSCF energy:           -1.037233227693
           >>>| Gradient norm:          0.706257547D-04




     ==============================
            MCSCF Converged
     ==============================



          Canonical Eigenvalues

              1      
    1   -0.4113
    2   -0.0916
    3   -0.0015
    4   -0.0011
    5   -0.0011
    6   -0.0002
    7   -0.0001
    8   -0.0001
    9   -0.0001
   10   -0.0000
   11    0.4806
   12    0.8155
   13    1.0377
   14    1.4044
   15    1.4044
   16    1.6746
   17    1.6746
   18    1.8699
   19    1.8904
   20    1.8904
   21    2.0282
   22    2.0282
   23    2.1542
   24    2.1542
   25    2.2559
   26    2.4776
   27    2.4776
   28    2.9369
   29    2.9807
   30    3.2785
   31    4.3932
   32    4.3932
   33    4.4523
   34    4.4523
   35    4.5251
   36    4.6645
   37    5.8140
   38    5.8855
   39    5.8855
   40    6.0138
   41    6.0138
   42    6.0625
   43    6.0625
   44    6.0712
   45    6.0712
   46    6.1234
   47    6.1234
   48    6.3540
   49    6.3540
   50    6.9496
   51    8.0632
   52    8.0632
   53    8.0977
   54    8.0977
   55    8.1778
   56    8.1778
   57    8.3172
   58    8.4437
   59    8.4437
   60    9.1462
   61    9.6239
   62    9.7062
   63    9.7062
   64    9.7170
   65    9.7385
   66    9.7385
   67    9.9699
   68    9.9723
   69   22.6967
   70   23.1655


          Converged CI vector

   Index           Coefficient          Config. Occupation
         1         -0.92302280          1  1
        12          0.38001335          2  2
        23          0.03601436          3  3
        34          0.03138620          4  4
        45          0.03138620          5  5

          Number of sigma calls:        1
                       o<<<<< (aa):             0.00
                       o<<<<< (bb):             0.00
                       o<<<<< (ab):             0.00
                       o<<<<< (total)           0.00
                       o<<<<< (aa) ff           0.00
                       o<<<<< (aa) gop          0.00
                       o<<<<< (aa) dot          0.00
                       o<<<<< (ab) str          0.00
                       o<<<<< (ab) gath         0.00
                       o<<<<< (ab) dotab        0.00
                       o<<<<< (ab) scat         0.00
                       o<<<<< (ab) sync         0.00
                       o<<<<< Density           0.00
                       o<<<<< Density one       0.00
                       o<<<<< Density two       0.00
                       o<<<<< Density ab        0.00
                       o<<<<< Spin adapt        0.00
                       o<<<<< Symm adapt        0.00

                       o<<<<< (ab) max sync:      0.00



          Natural orbital occupation numbers

              1      
    1    1.7041
    2    0.2888
    3    0.0026
    4    0.0020
    5    0.0020
    6    0.0002
    7    0.0001
    8    0.0001
    9    0.0001
   10    0.0000


          Number of sigma calls:       13
                       o<<<<< (aa):             0.00
                       o<<<<< (bb):             0.00
                       o<<<<< (ab):             0.02
                       o<<<<< (total)           0.02
                       o<<<<< (aa) ff           0.00
                       o<<<<< (aa) gop          0.00
                       o<<<<< (aa) dot          0.00
                       o<<<<< (ab) str          0.00
                       o<<<<< (ab) gath         0.00
                       o<<<<< (ab) dotab        0.00
                       o<<<<< (ab) scat         0.00
                       o<<<<< (ab) sync         0.00
                       o<<<<< Density           0.00
                       o<<<<< Density one       0.00
                       o<<<<< Density two       0.00
                       o<<<<< Density ab        0.00
                       o<<<<< Spin adapt        0.00
                       o<<<<< Symm adapt        0.00

                       o<<<<< (ab) max sync:      0.00


       Final MCSCF results 
       ------------------- 

       Total MCSCF energy =     -1.037233227693
            Gradient norm =      7.1D-05

    CPU time for solution =      3.5s
   Wall time for solution =      3.9s



                        Analysis of MCSCF natural orbitals
                        ----------------------------------

 Vector    1  Occ=1.704110D+00  E=-4.112988D-01  Symmetry=a
              MO Center=  5.9D-16,  1.2D-13, -4.4D-16, r^2= 1.5D+00
   Bfn.  Coefficient  Atom+Function         Bfn.  Coefficient  Atom+Function  
  ----- ------------  ---------------      ----- ------------  ---------------
     3      0.296453  1 H  s                 38      0.296453  2 H  s          
     4      0.192660  1 H  s                 39      0.192660  2 H  s          
     2      0.155892  1 H  s                 37      0.155892  2 H  s          

 Vector    2  Occ=2.888204D-01  E=-9.159796D-02  Symmetry=a
              MO Center=  3.5D-15, -1.8D-12, -3.1D-15, r^2= 1.6D+00
   Bfn.  Coefficient  Atom+Function         Bfn.  Coefficient  Atom+Function  
  ----- ------------  ---------------      ----- ------------  ---------------
     3      0.438835  1 H  s                 38     -0.438835  2 H  s          
     2      0.227953  1 H  s                 37     -0.227953  2 H  s          
     4      0.185313  1 H  s                 39     -0.185313  2 H  s          

 Vector    3  Occ=2.604530D-03  E=-1.517937D-03  Symmetry=a
              MO Center= -4.2D-14, -1.4D-11,  2.8D-14, r^2= 2.4D+00
   Bfn.  Coefficient  Atom+Function         Bfn.  Coefficient  Atom+Function  
  ----- ------------  ---------------      ----- ------------  ---------------
     4      0.495931  1 H  s                 39      0.495931  2 H  s          
     9     -0.461847  1 H  py                44      0.461847  2 H  py         
    12     -0.319311  1 H  py                47      0.319311  2 H  py         
     3     -0.230621  1 H  s                 38     -0.230621  2 H  s          
    27      0.159729  1 H  fxxy              34      0.159729  1 H  fyzz       

 Vector    4  Occ=1.970187D-03  E=-1.147198D-03  Symmetry=a
              MO Center=  6.9D-14,  1.1D-11, -1.1D-15, r^2= 1.5D+00
   Bfn.  Coefficient  Atom+Function         Bfn.  Coefficient  Atom+Function  
  ----- ------------  ---------------      ----- ------------  ---------------
    11      0.645666  1 H  px                46      0.645666  2 H  px         
     8     -0.410891  1 H  px                43     -0.410891  2 H  px         
    21      0.276002  1 H  dxy               56     -0.276002  2 H  dxy        
    29      0.243953  1 H  fxyy              64      0.243953  2 H  fxyy       
    26      0.187943  1 H  fxxx              31      0.187943  1 H  fxzz       

 Vector    5  Occ=1.970187D-03  E=-1.147198D-03  Symmetry=a
              MO Center= -7.7D-18,  1.1D-11, -4.0D-14, r^2= 1.5D+00
   Bfn.  Coefficient  Atom+Function         Bfn.  Coefficient  Atom+Function  
  ----- ------------  ---------------      ----- ------------  ---------------
    13      0.645666  1 H  pz                48      0.645666  2 H  pz         
    10     -0.410891  1 H  pz                45     -0.410891  2 H  pz         
    24      0.276002  1 H  dyz               59     -0.276002  2 H  dyz        
    33      0.243953  1 H  fyyz              68      0.243953  2 H  fyyz       
    28      0.187943  1 H  fxxz              35      0.187943  1 H  fzzz       

 Vector    6  Occ=2.165619D-04  E=-1.530914D-04  Symmetry=a
              MO Center= -1.1D-14,  8.7D-11,  4.9D-15, r^2= 1.5D+00
   Bfn.  Coefficient  Atom+Function         Bfn.  Coefficient  Atom+Function  
  ----- ------------  ---------------      ----- ------------  ---------------
     2      0.729201  1 H  s                 37      0.729201  2 H  s          
    12     -0.340379  1 H  py                47      0.340379  2 H  py         
     9      0.330253  1 H  py                44     -0.330253  2 H  py         
     3     -0.302531  1 H  s                 38     -0.302531  2 H  s          
     4     -0.267413  1 H  s                 39     -0.267413  2 H  s          

 Vector    7  Occ=9.168082D-05  E=-8.177480D-05  Symmetry=a
              MO Center= -3.8D-11,  2.7D-10,  2.3D-11, r^2= 1.8D+00
   Bfn.  Coefficient  Atom+Function         Bfn.  Coefficient  Atom+Function  
  ----- ------------  ---------------      ----- ------------  ---------------
     2      0.660053  1 H  s                 37     -0.660053  2 H  s          
     9      0.601884  1 H  py                44      0.601884  2 H  py         
     3     -0.525331  1 H  s                 38      0.525331  2 H  s          
     4     -0.292103  1 H  s                 39      0.292103  2 H  s          

 Vector    8  Occ=9.120936D-05  E=-7.827133D-05  Symmetry=a
              MO Center=  3.9D-11, -1.2D-11, -2.9D-12, r^2= 1.4D+00
   Bfn.  Coefficient  Atom+Function         Bfn.  Coefficient  Atom+Function  
  ----- ------------  ---------------      ----- ------------  ---------------
     8      0.720159  1 H  px                43     -0.720159  2 H  px         
    11      0.365504  1 H  px                46     -0.365504  2 H  px         
    21      0.219359  1 H  dxy               56      0.219359  2 H  dxy        
    26     -0.171317  1 H  fxxx              31     -0.171317  1 H  fxzz       
    61      0.171317  2 H  fxxx              66      0.171317  2 H  fxzz       

 Vector    9  Occ=9.120936D-05  E=-7.827133D-05  Symmetry=a
              MO Center= -1.5D-12, -1.1D-11, -2.0D-11, r^2= 1.4D+00
   Bfn.  Coefficient  Atom+Function         Bfn.  Coefficient  Atom+Function  
  ----- ------------  ---------------      ----- ------------  ---------------
    10      0.720159  1 H  pz                45     -0.720159  2 H  pz         
    13      0.365504  1 H  pz                48     -0.365504  2 H  pz         
    24      0.219359  1 H  dyz               59      0.219359  2 H  dyz        
    28     -0.171317  1 H  fxxz              35     -0.171317  1 H  fzzz       
    63      0.171317  2 H  fxxz              70      0.171317  2 H  fzzz       

 Vector   10  Occ=3.414173D-05  E=-3.625609D-05  Symmetry=a
              MO Center=  2.0D-17,  1.6D-09,  3.2D-16, r^2= 2.3D+00
   Bfn.  Coefficient  Atom+Function         Bfn.  Coefficient  Atom+Function  
  ----- ------------  ---------------      ----- ------------  ---------------
     9      2.885408  1 H  py                44     -2.885408  2 H  py         
     3     -1.368579  1 H  s                 38     -1.368579  2 H  s          
    27     -1.213754  1 H  fxxy              34     -1.213754  1 H  fyzz       
    62      1.213754  2 H  fxxy              69      1.213754  2 H  fyzz       
    32     -0.909881  1 H  fyyy              67      0.909881  2 H  fyyy       

 Vector   11  Occ=0.000000D+00  E= 4.805627D-01  Symmetry=a
              MO Center=  3.8D-13,  6.0D-11, -2.2D-13, r^2= 7.5D+00
   Bfn.  Coefficient  Atom+Function         Bfn.  Coefficient  Atom+Function  
  ----- ------------  ---------------      ----- ------------  ---------------
     3      2.721849  1 H  s                 38     -2.721849  2 H  s          
     4     -2.564337  1 H  s                 39      2.564337  2 H  s          
     9      0.744912  1 H  py                44      0.744912  2 H  py         
     2     -0.677574  1 H  s                 37      0.677574  2 H  s          
    12     -0.652858  1 H  py                47     -0.652858  2 H  py         

 Vector   12  Occ=0.000000D+00  E= 8.155100D-01  Symmetry=a
              MO Center= -7.9D-16,  5.7D-11,  1.1D-15, r^2= 5.2D+00
   Bfn.  Coefficient  Atom+Function         Bfn.  Coefficient  Atom+Function  
  ----- ------------  ---------------      ----- ------------  ---------------
     3      3.704213  1 H  s                 38      3.704213  2 H  s          
     4     -1.425782  1 H  s                 39     -1.425782  2 H  s          
     2     -1.179808  1 H  s                 37     -1.179808  2 H  s          
     9      1.090552  1 H  py                44     -1.090552  2 H  py         
    20     -0.575284  1 H  dxx               25     -0.575284  1 H  dzz        

 Vector   13  Occ=0.000000D+00  E= 1.037728D+00  Symmetry=a
              MO Center= -2.2D-12, -2.3D-09,  1.3D-12, r^2= 2.9D+00
   Bfn.  Coefficient  Atom+Function         Bfn.  Coefficient  Atom+Function  
  ----- ------------  ---------------      ----- ------------  ---------------
     3      3.151418  1 H  s                 38     -3.151418  2 H  s          
     9     -2.964478  1 H  py                44     -2.964478  2 H  py         
    12      2.114928  1 H  py                47      2.114928  2 H  py         
    32      1.150464  1 H  fyyy              67      1.150464  2 H  fyyy       
    27      1.116020  1 H  fxxy              34      1.116020  1 H  fyzz       

 Vector   14  Occ=0.000000D+00  E= 1.404381D+00  Symmetry=a
              MO Center=  2.0D-12, -5.2D-11, -1.3D-14, r^2= 3.1D+00
   Bfn.  Coefficient  Atom+Function         Bfn.  Coefficient  Atom+Function  
  ----- ------------  ---------------      ----- ------------  ---------------
     8      5.694357  1 H  px                43     -5.694357  2 H  px         
    29     -2.219060  1 H  fxyy              64      2.219060  2 H  fxyy       
    26     -2.190996  1 H  fxxx              31     -2.190996  1 H  fxzz       
    61      2.190996  2 H  fxxx              66      2.190996  2 H  fxzz       
    11     -1.697584  1 H  px                46      1.697584  2 H  px         

 Vector   15  Occ=0.000000D+00  E= 1.404381D+00  Symmetry=a
              MO Center= -7.6D-15, -5.1D-11, -1.2D-12, r^2= 3.1D+00
   Bfn.  Coefficient  Atom+Function         Bfn.  Coefficient  Atom+Function  
  ----- ------------  ---------------      ----- ------------  ---------------
    10      5.694357  1 H  pz                45     -5.694357  2 H  pz         
    33     -2.219060  1 H  fyyz              68      2.219060  2 H  fyyz       
    28     -2.190996  1 H  fxxz              35     -2.190996  1 H  fzzz       
    63      2.190996  2 H  fxxz              70      2.190996  2 H  fzzz       
    13     -1.697584  1 H  pz                48      1.697584  2 H  pz         

 Vector   16  Occ=0.000000D+00  E= 1.674593D+00  Symmetry=a
              MO Center= -1.6D-14,  3.6D-11, -1.5D-15, r^2= 2.3D+00
   Bfn.  Coefficient  Atom+Function         Bfn.  Coefficient  Atom+Function  
  ----- ------------  ---------------      ----- ------------  ---------------
     8      5.252004  1 H  px                43      5.252004  2 H  px         
    26     -2.075589  1 H  fxxx              31     -2.075589  1 H  fxzz       
    61     -2.075589  2 H  fxxx              66     -2.075589  2 H  fxzz       
    29     -2.018556  1 H  fxyy              64     -2.018556  2 H  fxyy       
     5     -1.398218  1 H  px                40     -1.398218  2 H  px         

 Vector   17  Occ=0.000000D+00  E= 1.674593D+00  Symmetry=a
              MO Center= -1.1D-15,  3.5D-11,  1.3D-14, r^2= 2.3D+00
   Bfn.  Coefficient  Atom+Function         Bfn.  Coefficient  Atom+Function  
  ----- ------------  ---------------      ----- ------------  ---------------
    10      5.252004  1 H  pz                45      5.252004  2 H  pz         
    28     -2.075589  1 H  fxxz              35     -2.075589  1 H  fzzz       
    63     -2.075589  2 H  fxxz              70     -2.075589  2 H  fzzz       
    33     -2.018556  1 H  fyyz              68     -2.018556  2 H  fyyz       
     7     -1.398218  1 H  pz                42     -1.398218  2 H  pz         

 Vector   18  Occ=0.000000D+00  E= 1.869928D+00  Symmetry=a
              MO Center= -3.9D-13,  9.1D-10,  2.2D-13, r^2= 3.5D+00
   Bfn.  Coefficient  Atom+Function         Bfn.  Coefficient  Atom+Function  
  ----- ------------  ---------------      ----- ------------  ---------------
     9      5.637441  1 H  py                44      5.637441  2 H  py         
    32     -2.138257  1 H  fyyy              67     -2.138257  2 H  fyyy       
    27     -2.119538  1 H  fxxy              34     -2.119538  1 H  fyzz       
    62     -2.119538  2 H  fxxy              69     -2.119538  2 H  fyzz       
     3      2.069023  1 H  s                 38     -2.069023  2 H  s          

 Vector   19  Occ=0.000000D+00  E= 1.890372D+00  Symmetry=a
              MO Center= -3.1D-15,  1.7D-11,  2.7D-15, r^2= 1.9D+00
   Bfn.  Coefficient  Atom+Function         Bfn.  Coefficient  Atom+Function  
  ----- ------------  ---------------      ----- ------------  ---------------
     8      3.422781  1 H  px                43      3.422781  2 H  px         
    29     -1.341178  1 H  fxyy              64     -1.341178  2 H  fxyy       
    26     -1.330215  1 H  fxxx              31     -1.330215  1 H  fxzz       
    61     -1.330215  2 H  fxxx              66     -1.330215  2 H  fxzz       
    21     -0.943911  1 H  dxy               56      0.943911  2 H  dxy        

 Vector   20  Occ=0.000000D+00  E= 1.890372D+00  Symmetry=a
              MO Center= -2.7D-15,  1.7D-11, -7.7D-16, r^2= 1.9D+00
   Bfn.  Coefficient  Atom+Function         Bfn.  Coefficient  Atom+Function  
  ----- ------------  ---------------      ----- ------------  ---------------
    10      3.422781  1 H  pz                45      3.422781  2 H  pz         
    33     -1.341178  1 H  fyyz              68     -1.341178  2 H  fyyz       
    28     -1.330215  1 H  fxxz              35     -1.330215  1 H  fzzz       
    63     -1.330215  2 H  fxxz              70     -1.330215  2 H  fzzz       
    24     -0.943911  1 H  dyz               59      0.943911  2 H  dyz        


 Wrote Lagrangian and 1- and 2-particle density matrices to ./H2.mcpdm


     Multipole analysis of the density
     ---------------------------------

     L   x y z        total        nuclear
     -   - - -        -----        -------
     0   0 0 0     -0.000000      2.000000

     1   1 0 0     -0.000000      0.000000
     1   0 1 0      0.000000      0.000000
     1   0 0 1      0.000000      0.000000

     2   2 0 0     -2.113236      0.000000
     2   1 1 0      0.000000      0.000000
     2   1 0 1     -0.000000      0.000000
     2   0 2 0     -1.224967      5.611250
     2   0 1 1     -0.000000      0.000000
     2   0 0 2     -2.113236      0.000000


  Mulliken analysis of the total density
  --------------------------------------

    Atom       Charge   Shell Charges
 -----------   ------   -------------------------------------------------------
    1 H    1     1.00   0.04  0.20  0.47  0.28  0.00 -0.00  0.01  0.00  0.00  0.00
    2 H    1     1.00   0.04  0.20  0.47  0.28  0.00 -0.00  0.01  0.00  0.00  0.00

    Mulliken analysis of the active space density
    ---------------------------------------------

    Atom       Charge   Shell Charges
 -----------   ------   -------------------------------------------------------
    1 H    1     1.00   0.04  0.20  0.47  0.28  0.00 -0.00  0.01  0.00  0.00  0.00
    2 H    1     1.00   0.04  0.20  0.47  0.28  0.00 -0.00  0.01  0.00  0.00  0.00

 Parallel integral file used      20 records with       0 large values


 Task  times  cpu:        3.6s     wall:        4.0s


                                NWChem Input Module
                                -------------------


                                 NWChem SCF Module
                                 -----------------


                                        H2



  ao basis        = "ao basis"
  functions       =    70
  atoms           =     2
  closed shells   =     1
  open shells     =     0
  charge          =   0.00
  wavefunction    = RHF 
  input vectors   = ./H2.mos
  output vectors  = ./H2-3.35.mos
  use symmetry    = F
  symmetry adapt  = F


 Summary of "ao basis" -> "ao basis" (cartesian)
 ------------------------------------------------------------------------------
       Tag                 Description            Shells   Functions and Types
 ---------------- ------------------------------  ------  ---------------------
 H                          cc-pVQZ                 10       35   4s3p2d1f



 Forming initial guess at       4.0s


 Loading old vectors from job with title :

H2


 Starting SCF solution at       4.0s



 ----------------------------------------------
         Quadratically convergent ROHF

 Convergence threshold     :          1.000E-04
 Maximum no. of iterations :           30
 Final Fock-matrix accuracy:          1.000E-07
 ----------------------------------------------


 Integral file          = ./H2.aoints.0
 Record size in doubles =  65536        No. of integs per rec  =  43688
 Max. records in memory =     99        Max. records in file   = 280245
 No. of bits per label  =      8        No. of bits per value  =     64


 #quartets = 2.199D+04 #integrals = 8.021D+05 #direct =  0.0% #cached =100.0%



       Final RHF  results 
       ------------------ 

         Total SCF energy =     -0.952854258385
      One-electron energy =     -1.706096977874
      Two-electron energy =      0.454735256803
 Nuclear repulsion energy =      0.298507462687

        Time for solution =      0.1s


             Final eigenvalues
             -----------------

              1      
    1   -0.4113
    2   -0.0916
    3   -0.0015
    4   -0.0011
    5   -0.0011
    6   -0.0002
    7   -0.0001
    8   -0.0001
    9   -0.0001
   10   -0.0000
   11    0.4806

                       ROHF Final Molecular Orbital Analysis
                       -------------------------------------

 Vector    1  Occ=2.000000D+00  E=-4.112988D-01
              MO Center=  5.9D-16,  1.2D-13, -4.4D-16, r^2= 1.5D+00
   Bfn.  Coefficient  Atom+Function         Bfn.  Coefficient  Atom+Function  
  ----- ------------  ---------------      ----- ------------  ---------------
     3      0.296453  1 H  s                 38      0.296453  2 H  s          
     4      0.192660  1 H  s                 39      0.192660  2 H  s          
     2      0.155892  1 H  s                 37      0.155892  2 H  s          

 Vector    2  Occ=0.000000D+00  E=-9.159796D-02
              MO Center=  3.5D-15, -1.8D-12, -3.1D-15, r^2= 1.6D+00
   Bfn.  Coefficient  Atom+Function         Bfn.  Coefficient  Atom+Function  
  ----- ------------  ---------------      ----- ------------  ---------------
     3      0.438835  1 H  s                 38     -0.438835  2 H  s          
     2      0.227953  1 H  s                 37     -0.227953  2 H  s          
     4      0.185313  1 H  s                 39     -0.185313  2 H  s          

 Vector    3  Occ=0.000000D+00  E=-1.517937D-03
              MO Center= -4.2D-14, -1.4D-11,  2.8D-14, r^2= 2.4D+00
   Bfn.  Coefficient  Atom+Function         Bfn.  Coefficient  Atom+Function  
  ----- ------------  ---------------      ----- ------------  ---------------
     4      0.495931  1 H  s                 39      0.495931  2 H  s          
     9     -0.461847  1 H  py                44      0.461847  2 H  py         
    12     -0.319311  1 H  py                47      0.319311  2 H  py         
     3     -0.230621  1 H  s                 38     -0.230621  2 H  s          
    27      0.159729  1 H  fxxy              34      0.159729  1 H  fyzz       

 Vector    4  Occ=0.000000D+00  E=-1.147198D-03
              MO Center=  6.9D-14,  1.1D-11, -1.1D-15, r^2= 1.5D+00
   Bfn.  Coefficient  Atom+Function         Bfn.  Coefficient  Atom+Function  
  ----- ------------  ---------------      ----- ------------  ---------------
    11      0.645666  1 H  px                46      0.645666  2 H  px         
     8     -0.410891  1 H  px                43     -0.410891  2 H  px         
    21      0.276002  1 H  dxy               56     -0.276002  2 H  dxy        
    29      0.243953  1 H  fxyy              64      0.243953  2 H  fxyy       
    26      0.187943  1 H  fxxx              31      0.187943  1 H  fxzz       

 Vector    5  Occ=0.000000D+00  E=-1.147198D-03
              MO Center= -7.7D-18,  1.1D-11, -4.0D-14, r^2= 1.5D+00
   Bfn.  Coefficient  Atom+Function         Bfn.  Coefficient  Atom+Function  
  ----- ------------  ---------------      ----- ------------  ---------------
    13      0.645666  1 H  pz                48      0.645666  2 H  pz         
    10     -0.410891  1 H  pz                45     -0.410891  2 H  pz         
    24      0.276002  1 H  dyz               59     -0.276002  2 H  dyz        
    33      0.243953  1 H  fyyz              68      0.243953  2 H  fyyz       
    28      0.187943  1 H  fxxz              35      0.187943  1 H  fzzz       

 Vector    6  Occ=0.000000D+00  E=-1.530914D-04
              MO Center= -1.1D-14,  8.7D-11,  4.9D-15, r^2= 1.5D+00
   Bfn.  Coefficient  Atom+Function         Bfn.  Coefficient  Atom+Function  
  ----- ------------  ---------------      ----- ------------  ---------------
     2      0.729201  1 H  s                 37      0.729201  2 H  s          
    12     -0.340379  1 H  py                47      0.340379  2 H  py         
     9      0.330253  1 H  py                44     -0.330253  2 H  py         
     3     -0.302531  1 H  s                 38     -0.302531  2 H  s          
     4     -0.267413  1 H  s                 39     -0.267413  2 H  s          

 Vector    7  Occ=0.000000D+00  E=-8.177480D-05
              MO Center= -3.8D-11,  2.7D-10,  2.3D-11, r^2= 1.8D+00
   Bfn.  Coefficient  Atom+Function         Bfn.  Coefficient  Atom+Function  
  ----- ------------  ---------------      ----- ------------  ---------------
     2      0.660053  1 H  s                 37     -0.660053  2 H  s          
     9      0.601884  1 H  py                44      0.601884  2 H  py         
     3     -0.525331  1 H  s                 38      0.525331  2 H  s          
     4     -0.292103  1 H  s                 39      0.292103  2 H  s          

 Vector    8  Occ=0.000000D+00  E=-7.827133D-05
              MO Center=  3.9D-11, -1.2D-11, -2.9D-12, r^2= 1.4D+00
   Bfn.  Coefficient  Atom+Function         Bfn.  Coefficient  Atom+Function  
  ----- ------------  ---------------      ----- ------------  ---------------
     8      0.720159  1 H  px                43     -0.720159  2 H  px         
    11      0.365504  1 H  px                46     -0.365504  2 H  px         
    21      0.219359  1 H  dxy               56      0.219359  2 H  dxy        
    26     -0.171317  1 H  fxxx              31     -0.171317  1 H  fxzz       
    61      0.171317  2 H  fxxx              66      0.171317  2 H  fxzz       

 Vector    9  Occ=0.000000D+00  E=-7.827133D-05
              MO Center= -1.5D-12, -1.1D-11, -2.0D-11, r^2= 1.4D+00
   Bfn.  Coefficient  Atom+Function         Bfn.  Coefficient  Atom+Function  
  ----- ------------  ---------------      ----- ------------  ---------------
    10      0.720159  1 H  pz                45     -0.720159  2 H  pz         
    13      0.365504  1 H  pz                48     -0.365504  2 H  pz         
    24      0.219359  1 H  dyz               59      0.219359  2 H  dyz        
    28     -0.171317  1 H  fxxz              35     -0.171317  1 H  fzzz       
    63      0.171317  2 H  fxxz              70      0.171317  2 H  fzzz       

 Vector   10  Occ=0.000000D+00  E=-3.625609D-05
              MO Center=  2.0D-17,  1.6D-09,  3.2D-16, r^2= 2.3D+00
   Bfn.  Coefficient  Atom+Function         Bfn.  Coefficient  Atom+Function  
  ----- ------------  ---------------      ----- ------------  ---------------
     9      2.885408  1 H  py                44     -2.885408  2 H  py         
     3     -1.368579  1 H  s                 38     -1.368579  2 H  s          
    27     -1.213754  1 H  fxxy              34     -1.213754  1 H  fyzz       
    62      1.213754  2 H  fxxy              69      1.213754  2 H  fyzz       
    32     -0.909881  1 H  fyyy              67      0.909881  2 H  fyyy       

 Vector   11  Occ=0.000000D+00  E= 4.805627D-01
              MO Center=  3.8D-13,  6.0D-11, -2.2D-13, r^2= 7.5D+00
   Bfn.  Coefficient  Atom+Function         Bfn.  Coefficient  Atom+Function  
  ----- ------------  ---------------      ----- ------------  ---------------
     3      2.721849  1 H  s                 38     -2.721849  2 H  s          
     4     -2.564337  1 H  s                 39      2.564337  2 H  s          
     9      0.744912  1 H  py                44      0.744912  2 H  py         
     2     -0.677574  1 H  s                 37      0.677574  2 H  s          
    12     -0.652858  1 H  py                47     -0.652858  2 H  py         

 Vector   12  Occ=0.000000D+00  E= 8.155100D-01
              MO Center= -7.9D-16,  5.7D-11,  1.1D-15, r^2= 5.2D+00
   Bfn.  Coefficient  Atom+Function         Bfn.  Coefficient  Atom+Function  
  ----- ------------  ---------------      ----- ------------  ---------------
     3      3.704213  1 H  s                 38      3.704213  2 H  s          
     4     -1.425782  1 H  s                 39     -1.425782  2 H  s          
     2     -1.179808  1 H  s                 37     -1.179808  2 H  s          
     9      1.090552  1 H  py                44     -1.090552  2 H  py         
    20     -0.575284  1 H  dxx               25     -0.575284  1 H  dzz        


 center of mass
 --------------
 x =   0.00000000 y =   0.00000000 z =   0.00000000

 moments of inertia (a.u.)
 ------------------
           5.655158031250           0.000000000000           0.000000000000
           0.000000000000           0.000000000000           0.000000000000
           0.000000000000           0.000000000000           5.655158031250

  Mulliken analysis of the total density
  --------------------------------------

    Atom       Charge   Shell Charges
 -----------   ------   -------------------------------------------------------
    1 H    1     1.00   0.04  0.19  0.46  0.31  0.00 -0.00  0.01  0.00  0.00  0.00
    2 H    1     1.00   0.04  0.19  0.46  0.31  0.00 -0.00  0.01  0.00  0.00  0.00

       Multipole analysis of the density wrt the origin
       ------------------------------------------------

     L   x y z        total         open         nuclear
     -   - - -        -----         ----         -------
     0   0 0 0     -0.000000      0.000000      2.000000

     1   1 0 0     -0.000000      0.000000      0.000000
     1   0 1 0     -0.000000      0.000000      0.000000
     1   0 0 1      0.000000      0.000000      0.000000

     2   2 0 0     -2.206806      0.000000      0.000000
     2   1 1 0      0.000000      0.000000      0.000000
     2   1 0 1     -0.000000      0.000000      0.000000
     2   0 2 0     -0.927760      0.000000      5.611250
     2   0 1 1      0.000000      0.000000      0.000000
     2   0 0 2     -2.206806      0.000000      0.000000


 Parallel integral file used      19 records with       0 large values

                   NWChem Extensible Many-Electron Theory Module
                   ---------------------------------------------

              ======================================================
                   This portion of the program was automatically
                  generated by a Tensor Contraction Engine (TCE).
                  The development of this portion of the program
                 and TCE was supported by US Department of Energy,
                Office of Science, Office of Basic Energy Science.
                      TCE is a product of Battelle and PNNL.
              Please cite: S.Hirata, J.Phys.Chem.A 107, 9887 (2003).
              ======================================================

                                        H2


            General Information
            -------------------
      Number of processors :     1
         Wavefunction type : Restricted Hartree-Fock
          No. of electrons :     2
           Alpha electrons :     1
            Beta electrons :     1
           No. of orbitals :   140
            Alpha orbitals :    70
             Beta orbitals :    70
        Alpha frozen cores :     0
         Beta frozen cores :     0
     Alpha frozen virtuals :     0
      Beta frozen virtuals :     0
         Spin multiplicity : singlet 
    Number of AO functions :    70
       Number of AO shells :    20
        Use of symmetry is : off
      Symmetry adaption is : off
         Schwarz screening : 0.10D-09

          Correlation Information
          -----------------------
          Calculation type : Coupled-cluster singles & doubles                           
   Perturbative correction : none                                                        
            Max iterations :      300
        Residual threshold : 0.10D-06
     T(0) DIIS level shift : 0.80D+00
     L(0) DIIS level shift : 0.00D+00
     T(1) DIIS level shift : 0.00D+00
     L(1) DIIS level shift : 0.00D+00
     T(R) DIIS level shift : 0.00D+00
     T(I) DIIS level shift : 0.00D+00
   CC-T/L Amplitude update :  5-th order DIIS
                I/O scheme : Global Array Library
        L-threshold :  0.10D-06
        EOM-threshold :  0.10D-06
 no EOMCCSD initial starts read in
 TCE RESTART OPTIONS
 READ_INT:   F
 WRITE_INT:  F
 READ_TA:    F
 WRITE_TA:   F
 READ_XA:    F
 WRITE_XA:   F
 READ_IN3:   F
 WRITE_IN3:  F
 SLICE:      F
 D4D5:       F
 quantumc:   F
 qrotation:  F
 pwtce:      F
 qducc:      T
 nacto:                         0
 nrotv:                         0
 nrot:                          0

            Memory Information
            ------------------
          Available GA space size is    1610607836 doubles
          Available MA space size is    1610610644 doubles

 Maximum block size        32 doubles

 tile_dim =     23

 Block   Spin    Irrep     Size     Offset   Alpha
 -------------------------------------------------
   1    alpha     a      1 doubles       0       1
   2    beta      a      1 doubles       1       1
   3    alpha     a     23 doubles       2       3
   4    alpha     a     23 doubles      25       4
   5    alpha     a     23 doubles      48       5
   6    beta      a     23 doubles      71       3
   7    beta      a     23 doubles      94       4
   8    beta      a     23 doubles     117       5

 Global array virtual files algorithm will be used

 Parallel file system coherency ......... OK

 Integral file          = ./H2.aoints.0
 Record size in doubles =  65536        No. of integs per rec  =  43688
 Max. records in memory =     99        Max. records in file   = 280245
 No. of bits per label  =      8        No. of bits per value  =     64


 #quartets = 2.214D+04 #integrals = 8.522D+05 #direct =  0.0% #cached =100.0%


 Fock matrix recomputed
 1-e file size   =             4900
 1-e file name   = ./H2.f1
 Cpu & wall time / sec            0.1            0.1
 4-electron integrals stored in orbital form

 v2    file size   =          6102085
 4-index algorithm nr.  13 is used
 imaxsize =       30
 imaxsize ichop =        0
 Cpu & wall time / sec            2.0            2.0
 T1-number-of-tasks                    3

 t1 file size   =               69
 t1 file name   = ./H2.t1
 t1 file handle =       -998
 T2-number-of-boxes                   15

 t2 file size   =             7935
 t2 file name   = ./H2.t2
 t2 file handle =       -996
CCSD iterations
 ---------------------------------------------------------
 Iter          Residuum       Correlation     Cpu    Wall 
 ---------------------------------------------------------
NEW TASK SCHEDULING
CCSD_T1_NTS --- OK
CCSD_T2_NTS --- OK
    1   0.5626445600969  -0.1003529784997     0.1     0.1
    2   0.3009949023672  -0.0609242376754     0.0     0.1
    3   0.1701339794123  -0.0783708747380     0.1     0.1
    4   0.1122451635901  -0.0712023393311     0.1     0.1
    5   0.0774296634262  -0.0775246062499     0.1     0.1
 MICROCYCLE DIIS UPDATE:                    5                    5
    6   0.0251704446234  -0.0776603758190     0.1     0.1
    7   0.0182828870474  -0.0792397498905     0.1     0.1
    8   0.0150388620940  -0.0801467030835     0.1     0.1
    9   0.0125005910707  -0.0809838889071     0.1     0.1
   10   0.0104720619834  -0.0816029135048     0.1     0.1
 MICROCYCLE DIIS UPDATE:                   10                    5
   11   0.0022789494992  -0.0847956508018     0.1     0.1
   12   0.0010664696073  -0.0847025708261     0.1     0.1
   13   0.0006064002467  -0.0847194253460     0.1     0.1
   14   0.0004161859291  -0.0847086957903     0.1     0.1
   15   0.0003069133167  -0.0847248652237     0.0     0.1
 MICROCYCLE DIIS UPDATE:                   15                    5
   16   0.0002011812172  -0.0847362820503     0.1     0.1
   17   0.0001471525050  -0.0847487117332     0.1     0.1
   18   0.0001209780356  -0.0847555359570     0.1     0.1
   19   0.0000997158924  -0.0847624101016     0.1     0.1
   20   0.0000833556906  -0.0847675103853     0.1     0.1
 MICROCYCLE DIIS UPDATE:                   20                    5
   21   0.0000203786454  -0.0847930273377     0.2     0.2
   22   0.0000106829325  -0.0847924183535     0.0     0.1
   23   0.0000067162810  -0.0847925593771     0.1     0.1
   24   0.0000048762785  -0.0847925315686     0.1     0.1
   25   0.0000036918414  -0.0847926671911     0.1     0.1
 MICROCYCLE DIIS UPDATE:                   25                    5
   26   0.0000021141417  -0.0847928700101     0.1     0.1
   27   0.0000014396537  -0.0847929859028     0.0     0.1
   28   0.0000011483610  -0.0847930319053     0.1     0.1
   29   0.0000009338664  -0.0847930902229     0.1     0.1
   30   0.0000007722626  -0.0847931293107     0.1     0.1
 MICROCYCLE DIIS UPDATE:                   30                    5
   31   0.0000002664310  -0.0847933126358     0.1     0.1
   32   0.0000001588052  -0.0847933108092     0.1     0.1
   33   0.0000001092174  -0.0847933161840     0.1     0.1
   34   0.0000000825805  -0.0847933189578     0.1     0.1
 -----------------------------------------------------------------
 Iterations converged
 CCSD correlation energy / hartree =        -0.084793318957800
 CCSD total energy / hartree       =        -1.037647577342422

 Singles contributions

 Doubles contributions
     2a   (alpha)     2a   (beta ) ---     1a   (alpha)     1a   (beta )       -0.4082549337
     3a   (alpha)     3a   (beta ) ---     1a   (alpha)     1a   (beta )       -0.0385416274
     4a   (alpha)     4a   (beta ) ---     1a   (alpha)     1a   (beta )       -0.0336302553
     5a   (alpha)     5a   (beta ) ---     1a   (alpha)     1a   (beta )       -0.0336302553
 Ground state specification:
 exp(T)|Ref>~(1+T)|Ref>
 ------- a(p)+/a(q) strings ----------

 singles norm

 doubles norm

 Reference string
  0.92581794756647695      :(1a)+ (1b)+ |0>

 Singles strings

 Doubles strings
 -0.37796974477303846      :(2a)+ (2b)+ (1b)  (1a)  (1a)+ (1b)+ |0>
 -------------------------------------
 enrep_tce =   0.29850746268656714     
  EHF(total)         =        -0.95285426
  Shift (HFtot-HFA)  =         0.00000000
 ALL OCCUPIED ORBITALS ARE ACTIVE IN DUCC --> NO SHIFT
 Number of active orbitals                   10
 Number of active alpha electrons                    1
 Number of active beta electrons                    1
  nos                     2
  nvs                   138
 noas                     1
 nobs                     1
 nvas                    69
 nvbs                    69
 nactv                     9
 DUCC MODEL =                     3
 NONHF =  T
 F-T1 correlation    =    9.3660630081872024E-006
 V-T1-T1 correlation =    2.2057510715741369E-009
 V-T2 correlation    =   -8.4802687226559342E-002
 Total correlation   =   -8.4793318957800082E-002
 F-T1(Ext) correlation         =   -7.9432962775890538E-007
 V-T1(Ext)-T1(Ext) correlation =    1.5968418086435969E-010
 V-T2(Ext) correlation         =   -1.1761308581234755E-003
 Total Ext correlation         =   -1.1769250280670536E-003
1-BODY TIME =    0.035 SECONDS.
  HHHH TIME =    0.013 SECONDS.
  PPPP TIME =    0.001 SECONDS.
  HHHP TIME =    0.033 SECONDS.
  PPPH TIME =    0.079 SECONDS.
  HPHP TIME =    0.012 SECONDS.
  HHPP TIME =    0.307 SECONDS.
 ONE-BODY UNITARY CHECK
 TWO-BODY UNITARY CHECK
 TWO-BODY ANTISYMMETRY CHECK
 TRANSFORMED ~FOCK~ MATRIX
    1    1        -0.4001565572
    1    3        -0.0009377382
    1    6         0.0500585743
    1   10        -0.0075630350
    2    2         0.0458996645
    2    7         0.1551873432
    3    1        -0.0009377382
    3    3         0.5932188041
    3    6         0.0705202945
    3   10        -0.4548293380
    4    4         0.5984925276
    5    5         0.5984925276
    6    1         0.0500585743
    6    3         0.0705202945
    6    6         0.9250623930
    6   10        -0.0880820010
    7    2         0.1551873432
    7    7         1.3074279703
    7   10        -0.0000000004
    8    8         1.2380871856
    9    9         1.2380871856
   10    1        -0.0075630350
   10    3        -0.4548293380
   10    6        -0.0880820010
   10    7        -0.0000000004
   10   10         1.6717972021
 begin_one_electron_integrals
    1    1        -0.8530477711
    1    3         0.0844943670
    1    6        -0.0069708330
    1   10        -0.0019469899
    2    2        -0.7014497223
    2    7         0.0130991647
    3    1         0.0844943670
    3    3        -0.1561596802
    3    6         0.0101576928
    3   10        -0.2850248525
    4    4        -0.1699181162
    5    5        -0.1699181162
    6    1        -0.0069708330
    6    3         0.0101576928
    6    6         0.0773752465
    6   10        -0.0590558287
    7    2         0.0130991647
    7    7         0.4479478606
    7   10        -0.0000000003
    8    8         0.3831345208
    9    9         0.3831345208
   10    1        -0.0019469899
   10    3        -0.2850248525
   10    6        -0.0590558287
   10    7        -0.0000000003
   10   10         0.8729915454
 end_one_electron_integrals
 begin_two_electron_integrals
    1    1    1    1        0.4528912139
    1    1    1    3       -0.0854321051
    1    1    1    6        0.0570294072
    1    1    1   10       -0.0056160451
    1    2    1    2        0.1807239127
    1    2    1    7        0.0453052674
    1    3    1    1       -0.0854321051
    1    3    1    3        0.0712266222
    1    3    1    6        0.0018631000
    1    3    1   10       -0.0173853332
    1    4    1    4        0.0640113281
    1    5    1    5        0.0640113281
    1    6    1    1        0.0570294072
    1    6    1    3        0.0018631000
    1    6    1    6        0.0711565685
    1    6    1   10       -0.0091541240
    1    7    1    2        0.0453052674
    1    7    1    7        0.0611614533
    1    8    1    8        0.0530869384
    1    9    1    9        0.0530869384
    1   10    1    1       -0.0056160451
    1   10    1    3       -0.0173853332
    1   10    1    6       -0.0091541240
    1   10    1   10        0.0270993038
    1    1    2    2        0.4647383879
    1    1    2    7        0.0938205347
    1    2    2    1        0.1821273891
    1    2    2    3        0.0022873867
    1    2    2    6        0.1272545529
    1    2    2   10       -0.0217095057
    1    3    2    2       -0.0688006001
    1    3    2    7       -0.0667259232
    1    4    2    8        0.0612938934
    1    4    2    9        0.0043219315
    1    5    2    8       -0.0043219315
    1    5    2    9        0.0612938934
    1    6    2    2        0.0910931540
    1    6    2    7        0.0308310251
    1    7    2    1        0.0455528908
    1    7    2    3       -0.0380485639
    1    7    2    6        0.0419601067
    1    7    2   10       -0.0047775509
    1    8    2    4        0.0408847540
    1    8    2    5       -0.0028828501
    1    9    2    4        0.0028828501
    1    9    2    5        0.0408847540
    1   10    2    2       -0.0142385882
    1   10    2    7        0.0065128848
    1    1    3    1       -0.0854321051
    1    1    3    3        0.4107591476
    1    1    3    6        0.0312414080
    1    1    3   10       -0.0937105249
    1    2    3    2        0.0022850896
    1    2    3    7       -0.1232954343
    1    3    3    1        0.0721398108
    1    3    3    3       -0.0968560904
    1    3    3    6       -0.0189498660
    1    3    3   10        0.0757826573
    1    4    3    4       -0.0138215341
    1    5    3    5       -0.0138215341
    1    6    3    1        0.0021202144
    1    6    3    3        0.0182319050
    1    6    3    6       -0.0103514224
    1    6    3   10        0.0063400274
    1    7    3    2       -0.0380850771
    1    7    3    7       -0.0367799291
    1    8    3    8       -0.0046433692
    1    9    3    9       -0.0046433692
    1   10    3    1       -0.0176165642
    1   10    3    3        0.0257429658
    1   10    3    6        0.0089185671
    1   10    3   10       -0.0268946817
    1    1    4    4        0.4165568777
    1    2    4    8        0.1253986046
    1    2    4    9        0.0088420583
    1    3    4    4       -0.0806914457
    1    4    4    1        0.0647031116
    1    4    4    3       -0.0138534595
    1    4    4    6       -0.0331935452
    1    4    4   10       -0.0222397948
    1    6    4    4        0.0088971514
    1    7    4    8        0.0271558905
    1    7    4    9        0.0019148057
    1    8    4    2        0.0409163136
    1    8    4    7        0.0024145600
    1    9    4    2        0.0028850754
    1    9    4    7        0.0001702545
    1   10    4    4       -0.0094977440
    1    1    5    5        0.4165568777
    1    2    5    8       -0.0088420583
    1    2    5    9        0.1253986046
    1    3    5    5       -0.0806914457
    1    5    5    1        0.0647031116
    1    5    5    3       -0.0138534595
    1    5    5    6       -0.0331935452
    1    5    5   10       -0.0222397948
    1    6    5    5        0.0088971514
    1    7    5    8       -0.0019148057
    1    7    5    9        0.0271558905
    1    8    5    2       -0.0028850754
    1    8    5    7       -0.0001702545
    1    9    5    2        0.0409163136
    1    9    5    7        0.0024145600
    1   10    5    5       -0.0094977440
    1    1    6    1        0.0570294072
    1    1    6    3        0.0312414080
    1    1    6    6        0.4598932185
    1    1    6   10       -0.0191674458
    1    2    6    2        0.1272628103
    1    2    6    7        0.0714925435
    1    2    6   10       -0.0000000001
    1    3    6    1        0.0021202144
    1    3    6    3       -0.0189586842
    1    3    6    6       -0.0841870112
    1    3    6   10        0.0108505435
    1    4    6    4       -0.0332039422
    1    5    6    5       -0.0332039422
    1    6    6    1        0.0720992906
    1    6    6    3       -0.0103695082
    1    6    6    6        0.0700936835
    1    6    6   10       -0.0214558511
    1    7    6    2        0.0420021385
    1    7    6    7        0.0417081375
    1    8    6    8        0.0128229317
    1    9    6    9        0.0128229317
    1   10    6    1       -0.0093087194
    1   10    6    3        0.0089173978
    1   10    6    6       -0.0159737986
    1   10    6   10       -0.0081970612
    1    1    7    2        0.0938205347
    1    1    7    7        0.4605786824
    1    2    7    1        0.0455528908
    1    2    7    3       -0.1232926017
    1    2    7    6        0.0714579333
    1    2    7   10       -0.0003228803
    1    3    7    2       -0.0667596038
    1    3    7    7       -0.0975659421
    1    4    7    8        0.0071247384
    1    4    7    9        0.0005023768
    1    5    7    8       -0.0005023768
    1    5    7    9        0.0071247384
    1    6    7    2        0.0308384468
    1    6    7    7        0.0725650923
    1    7    7    1        0.0616772552
    1    7    7    3       -0.0368098412
    1    7    7    6        0.0417100810
    1    7    7   10        0.0270777237
    1    8    7    4        0.0023953926
    1    8    7    5       -0.0001689030
    1    9    7    4        0.0001689030
    1    9    7    5        0.0023953926
    1   10    7    2        0.0065554627
    1   10    7    7        0.0113355063
    1    1    8    8        0.4544586001
    1    2    8    4        0.1253921768
    1    2    8    5       -0.0088416051
    1    3    8    8       -0.0787512190
    1    4    8    2        0.0613190252
    1    4    8    7        0.0071430227
    1    5    8    2       -0.0043237036
    1    5    8    7       -0.0005036661
    1    6    8    8        0.0522376968
    1    7    8    4        0.0271550073
    1    7    8    5       -0.0019147435
    1    8    8    1        0.0539645355
    1    8    8    3       -0.0046669401
    1    8    8    6        0.0128398852
    1    8    8   10       -0.0174214950
    1   10    8    8       -0.0156084381
    1    1    9    9        0.4544586001
    1    2    9    4        0.0088416051
    1    2    9    5        0.1253921768
    1    3    9    9       -0.0787512190
    1    4    9    2        0.0043237036
    1    4    9    7        0.0005036661
    1    5    9    2        0.0613190252
    1    5    9    7        0.0071430227
    1    6    9    9        0.0522376968
    1    7    9    4        0.0019147435
    1    7    9    5        0.0271550073
    1    9    9    1        0.0539645355
    1    9    9    3       -0.0046669401
    1    9    9    6        0.0128398852
    1    9    9   10       -0.0174214950
    1   10    9    9       -0.0156084381
    1    1   10    1       -0.0056160451
    1    1   10    3       -0.0937105249
    1    1   10    6       -0.0191674458
    1    1   10   10        0.4132463871
    1    2   10    2       -0.0217101593
    1    2   10    6       -0.0000000001
    1    2   10    7       -0.0003338671
    1    2   10   10       -0.0000000001
    1    3   10    1       -0.0176165642
    1    3   10    3        0.0757837512
    1    3   10    6        0.0108539809
[...]
    9   10    2    5       -0.0133660263
    9    1    3    9       -0.0046669401
    9    2    3    4       -0.0005697334
    9    2    3    5       -0.0080799934
    9    3    3    9        0.0119916709
    9    4    3    2        0.0000190845
    9    4    3    7       -0.0061555100
    9    5    3    2        0.0002706570
    9    5    3    7       -0.0872978151
    9    6    3    9       -0.0004670609
    9    7    3    4       -0.0010845278
    9    7    3    5       -0.0153808385
    9    9    3    1       -0.0787512190
    9    9    3    3        0.4014605319
    9    9    3    6        0.0282635473
    9    9    3   10       -0.0842378802
    9   10    3    9       -0.0008587700
    9    1    4    2        0.0028828501
    9    1    4    7        0.0001689030
    9    2    4    1        0.0043219315
    9    2    4    3       -0.0005697334
    9    2    4    6       -0.0011656536
    9    2    4   10       -0.0014625587
    9    3    4    2       -0.0001644134
    9    3    4    7       -0.0008051338
    9    4    4    8        0.0072730652
    9    4    4    9        0.0134031666
    9    5    4    8        0.0902567192
    9    5    4    9        0.0072730652
    9    6    4    2        0.0005458715
    9    6    4    7        0.0002454852
    9    7    4    1        0.0005023768
    9    7    4    3       -0.0010845278
    9    7    4    6        0.0000975304
    9    7    4   10        0.0001298021
    9    8    4    4        0.0023980809
    9    8    4    5        0.0169203176
    9    9    4    4        0.4078529079
    9    9    4    5        0.0023980809
    9   10    4    2       -0.0009424601
    9   10    4    7        0.0001346391
    9    1    5    2        0.0408847540
    9    1    5    7        0.0023953926
    9    2    5    1        0.0612938934
    9    2    5    3       -0.0080799934
    9    2    5    6       -0.0165313701
    9    2    5   10       -0.0207420962
    9    3    5    2       -0.0023317212
    9    3    5    7       -0.0114184566
    9    4    5    8        0.0123774954
    9    4    5    9        0.0072730652
    9    5    5    8       -0.0072730652
    9    5    5    9        0.1160373812
    9    6    5    2        0.0077415819
    9    6    5    7        0.0034814866
    9    7    5    1        0.0071247384
    9    7    5    3       -0.0153808385
    9    7    5    6        0.0013831821
    9    7    5   10        0.0018408614
    9    8    5    4        0.0169203176
    9    8    5    5       -0.0023980809
    9    9    5    4        0.0023980809
    9    9    5    5        0.4416935431
    9   10    5    2       -0.0133660263
    9   10    5    7        0.0019094605
    9    1    6    9        0.0128398852
    9    2    6    4       -0.0011656536
    9    2    6    5       -0.0165313701
    9    3    6    9       -0.0004670609
    9    4    6    2        0.0049392947
    9    4    6    7        0.0030838156
    9    5    6    2        0.0700493758
    9    5    6    7        0.0437348594
    9    5    6   10       -0.0000000001
    9    6    6    9        0.0153306290
    9    7    6    4        0.0000975304
    9    7    6    5        0.0013831821
    9    9    6    1        0.0522376968
    9    9    6    3        0.0282635473
    9    9    6    6        0.4502087258
    9    9    6   10       -0.0142398838
    9   10    6    9       -0.0034414124
    9    1    7    4        0.0001702545
    9    1    7    5        0.0024145600
    9    2    7    9        0.0089587980
    9    3    7    4       -0.0008051338
    9    3    7    5       -0.0114184566
    9    4    7    1        0.0019148057
    9    4    7    3       -0.0061555100
    9    4    7    6        0.0030838156
    9    4    7   10        0.0003083929
    9    5    7    1        0.0271558905
    9    5    7    3       -0.0872978151
    9    5    7    6        0.0437348594
    9    5    7   10        0.0043736461
    9    6    7    4        0.0002454852
    9    6    7    5        0.0034814866
    9    7    7    9        0.0202853321
    9    9    7    2        0.0858195353
    9    9    7    7        0.4514619469
    9   10    7    4        0.0001346391
    9   10    7    5        0.0019094605
    9    4    8    4        0.0072730652
    9    4    8    5        0.0123774954
    9    5    8    4        0.0902567192
    9    5    8    5       -0.0072730652
    9    8    8    9        0.0212606660
    9    9    8    8        0.4473615945
    9    1    9    1        0.0530869384
    9    1    9    3       -0.0046433692
    9    1    9    6        0.0128229317
    9    1    9   10       -0.0174260148
    9    2    9    2        0.0719146804
    9    2    9    7        0.0089587980
    9    3    9    1       -0.0046433692
    9    3    9    3        0.0119916709
    9    3    9    6       -0.0004670609
    9    3    9   10       -0.0008587700
    9    4    9    4        0.0134031666
    9    4    9    5        0.0072730652
    9    5    9    4        0.0072730652
    9    5    9    5        0.1160373812
    9    6    9    1        0.0128229317
    9    6    9    3       -0.0004670609
    9    6    9    6        0.0153306290
    9    6    9   10       -0.0034414124
    9    7    9    2        0.0089587980
    9    7    9    7        0.0202853321
    9    8    9    8        0.0212606660
    9    9    9    9        0.4898829264
    9   10    9    1       -0.0174260148
    9   10    9    3       -0.0008587700
    9   10    9    6       -0.0034414124
    9   10    9   10        0.0107008080
    9    1   10    9       -0.0174214950
    9    2   10    4       -0.0014625587
    9    2   10    5       -0.0207420962
    9    3   10    9       -0.0008587700
    9    4   10    2       -0.0012126585
    9    4   10    7        0.0003083929
    9    5   10    2       -0.0171979955
    9    5   10    6       -0.0000000001
    9    5   10    7        0.0043736461
    9    5   10   10       -0.0000000001
    9    6   10    9       -0.0034414124
    9    7   10    4        0.0001298021
    9    7   10    5        0.0018408614
    9    9   10    1       -0.0156084381
    9    9   10    3       -0.0842378802
    9    9   10    6       -0.0142398838
    9    9   10   10        0.4030841634
    9   10   10    9        0.0107008080
   10    1    1    1       -0.0056160451
   10    1    1    3       -0.0176165642
   10    1    1    6       -0.0093087194
   10    1    1   10        0.0276871175
   10    2    1    2       -0.0217101593
   10    2    1    7       -0.0047459598
   10    3    1    1       -0.0937105249
   10    3    1    3        0.0757837512
   10    3    1    6        0.0063422954
   10    3    1   10       -0.0268996372
   10    4    1    4       -0.0222453907
   10    5    1    5       -0.0222453907
   10    6    1    1       -0.0191674458
   10    6    1    2       -0.0000000001
   10    6    1    3        0.0108539809
   10    6    1    6       -0.0214609639
   10    6    1   10       -0.0081915593
   10    7    1    2       -0.0003338671
   10    7    1    7        0.0270767167
   10    8    1    8       -0.0174260148
   10    9    1    9       -0.0174260148
   10   10    1    1        0.4132463871
   10   10    1    2       -0.0000000001
   10   10    1    3       -0.1011101972
   10   10    1    6        0.0130099463
   10   10    1   10        0.0269267725
   10    1    2    2       -0.0142385882
   10    1    2    7        0.0065554627
   10    2    2    1       -0.0217095057
   10    2    2    3        0.0002352390
   10    2    2    6       -0.0194623473
   10    2    2   10        0.0154305731
   10    3    2    2       -0.0742282853
   10    3    2    7       -0.0609646491
   10    4    2    8       -0.0207420962
   10    4    2    9       -0.0014625587
   10    5    2    8        0.0014625587
   10    5    2    9       -0.0207420962
   10    6    2    1       -0.0000000001
   10    6    2    2       -0.0264546243
   10    6    2    6       -0.0000000001
   10    6    2    7       -0.0151657458
   10    7    2    1       -0.0003228803
   10    7    2    3       -0.0238075582
   10    7    2    6       -0.0046144450
   10    7    2   10        0.0034930695
   10    8    2    4       -0.0133660263
   10    8    2    5        0.0009424601
   10    9    2    4       -0.0009424601
   10    9    2    5       -0.0133660263
   10   10    2    1       -0.0000000001
   10   10    2    2        0.3985485343
   10   10    2    7        0.0822217024
   10    1    3    1       -0.0173853332
   10    1    3    3        0.0257429658
   10    1    3    6        0.0089173978
   10    1    3   10       -0.0268996372
   10    2    3    2        0.0002352390
   10    2    3    7       -0.0004103540
   10    3    3    1        0.0757826573
   10    3    3    3       -0.1162756561
   10    3    3    6       -0.0259348673
   10    3    3   10        0.0970636716
   10    4    3    4       -0.0008196426
   10    5    3    5       -0.0008196426
   10    6    3    1        0.0108505435
   10    6    3    3       -0.0192663097
   10    6    3    6       -0.0040382472
   10    6    3    7        0.0000000001
   10    6    3   10        0.0160587302
   10    7    3    2       -0.0238075582
   10    7    3    7       -0.0101626037
   10    8    3    8       -0.0008587700
   10    9    3    9       -0.0008587700
   10   10    3    1       -0.1011101972
   10   10    3    3        0.4217088616
   10   10    3    6        0.0446602958
   10   10    3   10       -0.1249224975
   10    1    4    4       -0.0094977440
   10    2    4    8       -0.0171979955
   10    2    4    9       -0.0012126585
   10    3    4    4       -0.0874512909
   10    4    4    1       -0.0222397948
   10    4    4    3       -0.0008196426
   10    4    4    6        0.0141600573
   10    4    4   10        0.0177725102
   10    6    4    4       -0.0003516783
   10    6    4    8       -0.0000000001
   10    7    4    8        0.0043736461
   10    7    4    9        0.0003083929
   10    8    4    2       -0.0133660263
   10    8    4    7        0.0019094605
   10    9    4    2       -0.0009424601
   10    9    4    7        0.0001346391
   10   10    4    4        0.3941370276
   10   10    4    8       -0.0000000001
   10    1    5    5       -0.0094977440
   10    2    5    8        0.0012126585
   10    2    5    9       -0.0171979955
   10    3    5    5       -0.0874512909
   10    5    5    1       -0.0222397948
   10    5    5    3       -0.0008196426
   10    5    5    6        0.0141600573
   10    5    5   10        0.0177725102
   10    6    5    5       -0.0003516783
   10    6    5    9       -0.0000000001
   10    7    5    8       -0.0003083929
   10    7    5    9        0.0043736461
   10    8    5    2        0.0009424601
   10    8    5    7       -0.0001346391
   10    9    5    2       -0.0133660263
   10    9    5    7        0.0019094605
   10   10    5    5        0.3941370276
   10   10    5    9       -0.0000000001
   10    1    6    1       -0.0091541240
   10    1    6    3        0.0089185671
   10    1    6    6       -0.0159737986
   10    1    6   10       -0.0081915593
   10    2    6    2       -0.0194623473
   10    2    6    7       -0.0111321622
   10    3    6    1        0.0063400274
   10    3    6    3       -0.0259348673
   10    3    6    6       -0.0881288147
   10    3    6   10        0.0160587302
   10    4    6    4        0.0141600573
   10    5    6    5        0.0141600573
   10    6    6    1       -0.0214558511
   10    6    6    2       -0.0000000001
   10    6    6    3       -0.0040382472
   10    6    6    6       -0.0203605624
   10    6    6   10        0.0177673291
   10    7    6    2       -0.0046144450
   10    7    6    7        0.0059786961
   10    8    6    8       -0.0034414124
   10    9    6    9       -0.0034414124
   10   10    6    1        0.0130099463
   10   10    6    3        0.0446602958
   10   10    6    6        0.4060700151
   10   10    6   10       -0.0178637429
   10    1    7    2        0.0065128848
   10    1    7    7        0.0113355063
   10    2    7    1       -0.0047775509
   10    2    7    3       -0.0004103540
   10    2    7    6       -0.0111321622
   10    2    7   10        0.0034930695
   10    3    7    2       -0.0609646491
   10    3    7    7       -0.1043403998
   10    4    7    8        0.0018408614
   10    4    7    9        0.0001298021
   10    5    7    8       -0.0001298021
   10    5    7    9        0.0018408614
   10    6    7    2       -0.0151657458
   10    6    7    3        0.0000000001
   10    6    7    7       -0.0237599720
   10    7    7    1        0.0270777237
   10    7    7    3       -0.0101626037
   10    7    7    6        0.0059786961
   10    7    7   10        0.0303597745
   10    8    7    4        0.0019094605
   10    8    7    5       -0.0001346391
   10    9    7    4        0.0001346391
   10    9    7    5        0.0019094605
   10   10    7    2        0.0822217024
   10   10    7    7        0.4258413485
   10    1    8    8       -0.0156084381
   10    2    8    4       -0.0171979955
   10    2    8    5        0.0012126585
   10    3    8    8       -0.0842378802
   10    4    8    2       -0.0207420962
   10    4    8    7        0.0018408614
   10    5    8    2        0.0014625587
   10    5    8    7       -0.0001298021
   10    6    8    4       -0.0000000001
   10    6    8    8       -0.0142398838
   10    7    8    4        0.0043736461
   10    7    8    5       -0.0003083929
   10    8    8    1       -0.0174214950
   10    8    8    3       -0.0008587700
   10    8    8    6       -0.0034414124
   10    8    8   10        0.0107008080
   10   10    8    4       -0.0000000001
   10   10    8    8        0.4030841634
   10    1    9    9       -0.0156084381
   10    2    9    4       -0.0012126585
   10    2    9    5       -0.0171979955
   10    3    9    9       -0.0842378802
   10    4    9    2       -0.0014625587
   10    4    9    7        0.0001298021
   10    5    9    2       -0.0207420962
   10    5    9    7        0.0018408614
   10    6    9    5       -0.0000000001
   10    6    9    9       -0.0142398838
   10    7    9    4        0.0003083929
   10    7    9    5        0.0043736461
   10    9    9    1       -0.0174214950
   10    9    9    3       -0.0008587700
   10    9    9    6       -0.0034414124
   10    9    9   10        0.0107008080
   10   10    9    5       -0.0000000001
   10   10    9    9        0.4030841634
   10    1   10    1        0.0270993038
   10    1   10    3       -0.0268946817
   10    1   10    6       -0.0081970612
   10    1   10   10        0.0269267725
   10    2   10    2        0.0154305731
   10    2   10    7        0.0034930695
   10    3   10    1       -0.0268946817
   10    3   10    3        0.0970636716
   10    3   10    6        0.0160587302
   10    3   10   10       -0.1249224975
   10    4   10    4        0.0177725102
   10    5   10    5        0.0177725102
   10    6   10    1       -0.0081970612
   10    6   10    3        0.0160587302
   10    6   10    6        0.0177673291
   10    6   10   10       -0.0178637429
   10    7   10    2        0.0034930695
   10    7   10    7        0.0303597745
   10    8   10    8        0.0107008080
   10    9   10    9        0.0107008080
   10   10   10    1        0.0269267725
   10   10   10    3       -0.1249224975
   10   10   10    6       -0.0178637429
   10   10   10   10        0.4372262071
 end_two_electron_integrals

 Parallel integral file used      20 records with       0 large values


 Task  times  cpu:       33.5s     wall:       36.6s


                                NWChem Input Module
                                -------------------


 Summary of allocated global arrays
-----------------------------------
  No active global arrays


MA_summarize_allocated_blocks: starting scan ...
MA_summarize_allocated_blocks: scan completed: 0 heap blocks, 0 stack blocks
MA usage statistics:

	allocation statistics:
					      heap	     stack
					      ----	     -----
	current number of blocks	         0	         0
	maximum number of blocks	        18	        42
	current total bytes		         0	         0
	maximum total bytes		  51983048	9994007128
	maximum total K-bytes		     51984	   9994008
	maximum total M-bytes		        52	      9995


                                     CITATION
                                     --------
                Please cite the following reference when publishing
                           results obtained with NWChem:

          E. Apra, E. J. Bylaska, W. A. de Jong, N. Govind, K. Kowalski,
       T. P. Straatsma, M. Valiev, H. J. J. van Dam, Y. Alexeev, J. Anchell,
       V. Anisimov, F. W. Aquino, R. Atta-Fynn, J. Autschbach, N. P. Bauman,
     J. C. Becca, D. E. Bernholdt, K. Bhaskaran-Nair, S. Bogatko, P. Borowski,
         J. Boschen, J. Brabec, A. Bruner, E. Cauet, Y. Chen, G. N. Chuev,
      C. J. Cramer, J. Daily, M. J. O. Deegan, T. H. Dunning Jr., M. Dupuis,
   K. G. Dyall, G. I. Fann, S. A. Fischer, A. Fonari, H. Fruchtl, L. Gagliardi,
      J. Garza, N. Gawande, S. Ghosh, K. Glaesemann, A. W. Gotz, J. Hammond,
       V. Helms, E. D. Hermes, K. Hirao, S. Hirata, M. Jacquelin, L. Jensen,
   B. G. Johnson, H. Jonsson, R. A. Kendall, M. Klemm, R. Kobayashi, V. Konkov,
      S. Krishnamoorthy, M. Krishnan, Z. Lin, R. D. Lins, R. J. Littlefield,
      A. J. Logsdail, K. Lopata, W. Ma, A. V. Marenich, J. Martin del Campo,
   D. Mejia-Rodriguez, J. E. Moore, J. M. Mullin, T. Nakajima, D. R. Nascimento,
    J. A. Nichols, P. J. Nichols, J. Nieplocha, A. Otero-de-la-Roza, B. Palmer,
    A. Panyala, T. Pirojsirikul, B. Peng, R. Peverati, J. Pittner, L. Pollack,
   R. M. Richard, P. Sadayappan, G. C. Schatz, W. A. Shelton, D. W. Silverstein,
   D. M. A. Smith, T. A. Soares, D. Song, M. Swart, H. L. Taylor, G. S. Thomas,
            V. Tipparaju, D. G. Truhlar, K. Tsemekhman, T. Van Voorhis,
      A. Vazquez-Mayagoitia, P. Verma, O. Villa, A. Vishnu, K. D. Vogiatzis,
        D. Wang, J. H. Weare, M. J. Williamson, T. L. Windus, K. Wolinski,
        A. T. Wong, Q. Wu, C. Yang, Q. Yu, M. Zacharias, Z. Zhang, Y. Zhao,
                                and R. J. Harrison
                        "NWChem: Past, present, and future
                         J. Chem. Phys. 152, 184102 (2020)
                               doi:10.1063/5.0004997

                                      AUTHORS
                                      -------
  E. Apra, E. J. Bylaska, N. Govind, K. Kowalski, M. Valiev, D. Mejia-Rodriguez,
       A. Kunitsa, N. P. Bauman, A. Panyala, W. A. de Jong, T. P. Straatsma,
        H. J. J. van Dam, D. Wang, T. L. Windus, J. Hammond, J. Autschbach,
    K. Bhaskaran-Nair, J. Brabec, K. Lopata, S. A. Fischer, S. Krishnamoorthy,
     M. Jacquelin, W. Ma, M. Klemm, O. Villa, Y. Chen, V. Anisimov, F. Aquino,
    S. Hirata, M. T. Hackler, Eric Hermes, L. Jensen, J. E. Moore, J. C. Becca,
      V. Konjkov, T. Risthaus, M. Malagoli, A. Marenich, A. Otero-de-la-Roza,
        J. Mullin, P. Nichols, R. Peverati, J. Pittner, Y. Zhao, P.-D. Fan,
        A. Fonari, M. J. Williamson, R. J. Harrison, J. R. Rehr, M. Dupuis,
     D. Silverstein, D. M. A. Smith, J. Nieplocha, V. Tipparaju, M. Krishnan,
     B. E. Van Kuiken, A. Vazquez-Mayagoitia, M. Swart, Q. Wu, T. Van Voorhis,
     A. A. Auer, M. Nooijen, L. D. Crosby, E. Brown, G. Cisneros, G. I. Fann,
   H. Fruchtl, J. Garza, K. Hirao, R. A. Kendall, J. A. Nichols, K. Tsemekhman,
    K. Wolinski, J. Anchell, D. E. Bernholdt, P. Borowski, T. Clark, D. Clerc,
   H. Dachsel, M. J. O. Deegan, K. Dyall, D. Elwood, E. Glendening, M. Gutowski,
   A. C. Hess, J. Jaffe, B. G. Johnson, J. Ju, R. Kobayashi, R. Kutteh, Z. Lin,
   R. Littlefield, X. Long, B. Meng, T. Nakajima, S. Niu, L. Pollack, M. Rosing,
   K. Glaesemann, G. Sandrone, M. Stave, H. Taylor, G. Thomas, J. H. van Lenthe,
                               A. T. Wong, Z. Zhang.

 Total times  cpu:       37.1s     wall:       40.6s
