 argument  1 = input.nw
  NWChem w/ OpenMP: maximum threads =    1



============================== echo of input deck ==============================
 echo
 start H2
 title "H2"

 memory total 24 gb

 geometry units bohr
 symmetry c1
        H  0.00000000  0.00000000  0.00000000
        H  0.00000000  3.65  0.00000000
 end

 basis
   * library cc-pVQZ
 end

 mcscf
   active  10
   actelec 2
   multiplicity 1
   maxiter 40
   vectors input H2.mos
   vectors output H2.mos
 end

 task mcscf

 scf
   vectors input H2.mos
   vectors output H2-3.65.mos
   noscf
 end

 tce
   2eorb
   2emet 13
   ccsd
   maxiter 300
   lshift 0.8
 end

# set tce:print_integrals T
# set tce:qorb 10
# set tce:qela 1
# set tce:qelb 1

 set tce:qducc T
 set tce:nactv 9
 set tce:nonhf T
 set tce:ducc_model 3

 set tce:printtol 0.02

 task tce
================================================================================


                                         
                                         


             Northwest Computational Chemistry Package (NWChem) 7.0.1
             --------------------------------------------------------


                    Environmental Molecular Sciences Laboratory
                       Pacific Northwest National Laboratory
                                Richland, WA 99352

                              Copyright (c) 1994-2020
                       Pacific Northwest National Laboratory
                            Battelle Memorial Institute

             NWChem is an open-source computational chemistry package
                        distributed under the terms of the
                      Educational Community License (ECL) 2.0
             A copy of the license is included with this distribution
                              in the LICENSE.TXT file

                                  ACKNOWLEDGMENT
                                  --------------

            This software and its documentation were developed at the
            EMSL at Pacific Northwest National Laboratory, a multiprogram
            national laboratory, operated for the U.S. Department of Energy
            by Battelle under Contract Number DE-AC05-76RL01830. Support
            for this work was provided by the Department of Energy Office
            of Biological and Environmental Research, Office of Basic
            Energy Sciences, and the Office of Advanced Scientific Computing.


           Job information
           ---------------

    hostname        = WE46210
    program         = /home/baum612/code/nwchem/bin/LINUX64/nwchem
    date            = Fri Nov 10 22:19:54 2023

    compiled        = Mon_Nov_06_10:06:57_2023
    source          = /home/baum612/code/nwchem
    nwchem branch   = 7.0.0
    nwchem revision = nwchem_on_git-4191-g39d87d64de
    ga revision     = 5.8.1
    use scalapack   = F
    input           = input.nw
    prefix          = H2.
    data base       = ./H2.db
    status          = startup
    nproc           =        1
    time left       =     -1s



           Memory information
           ------------------

    heap     =  805306362 doubles =   6144.0 Mbytes
    stack    =  805306367 doubles =   6144.0 Mbytes
    global   = 1610612736 doubles =  12288.0 Mbytes (distinct from heap & stack)
    total    = 3221225465 doubles =  24576.0 Mbytes
    verify   = yes
    hardfail = no 


           Directory information
           ---------------------

  0 permanent = .
  0 scratch   = .




                                NWChem Input Module
                                -------------------


                                        H2
                                        --
 Turning off AUTOSYM since
 SYMMETRY directive was detected!


          ------
          auto-z
          ------
     1 autoz failed with cvr_scaling = 1.2 changing to 1.3
     2 autoz failed with cvr_scaling = 1.3 changing to 1.4
     3 autoz failed with cvr_scaling = 1.4 changing to 1.5
     4 autoz failed with cvr_scaling = 1.5 changing to 1.6
     5 autoz failed with cvr_scaling = 1.6 changing to 1.7

 AUTOZ failed to generate good internal coordinates.
 Cartesian coordinates will be used in optimizations.



                             Geometry "geometry" -> ""
                             -------------------------

 Output coordinates in a.u. (scale by  1.000000000 to convert to a.u.)

  No.       Tag          Charge          X              Y              Z
 ---- ---------------- ---------- -------------- -------------- --------------
    1 H                    1.0000     0.00000000    -1.82500000     0.00000000
    2 H                    1.0000     0.00000000     1.82500000     0.00000000

      Atomic Mass 
      ----------- 

      H                  1.007825


 Effective nuclear repulsion energy (a.u.)       0.2739726027

            Nuclear Dipole moment (a.u.) 
            ----------------------------
        X                 Y               Z
 ---------------- ---------------- ----------------
     0.0000000000     0.0000000000     0.0000000000


            XYZ format geometry
            -------------------
     2
 geometry
 H                     0.00000000    -0.96574848     0.00000000
 H                     0.00000000     0.96574848     0.00000000



 Summary of "ao basis" -> "" (cartesian)
 ------------------------------------------------------------------------------
       Tag                 Description            Shells   Functions and Types
 ---------------- ------------------------------  ------  ---------------------
 *                          cc-pVQZ                   on all atoms 


                      Basis "ao basis" -> "ao basis" (cartesian)
                      -----
  H (Hydrogen)
  ------------
            Exponent  Coefficients 
       -------------- ---------------------------------------------------------
  1 S  8.26400000E+01  0.002006
  1 S  1.24100000E+01  0.015343
  1 S  2.82400000E+00  0.075579

  2 S  7.97700000E-01  1.000000

  3 S  2.58100000E-01  1.000000

  4 S  8.98900000E-02  1.000000

  5 P  2.29200000E+00  1.000000

  6 P  8.38000000E-01  1.000000

  7 P  2.92000000E-01  1.000000

  8 D  2.06200000E+00  1.000000

  9 D  6.62000000E-01  1.000000

 10 F  1.39700000E+00  1.000000



 Summary of "ao basis" -> "ao basis" (cartesian)
 ------------------------------------------------------------------------------
       Tag                 Description            Shells   Functions and Types
 ---------------- ------------------------------  ------  ---------------------
 H                          cc-pVQZ                 10       35   4s3p2d1f



                            NWChem Direct MCSCF Module
                            --------------------------


                                        H2


     -----------------------------------
       Basis functions:             70
       Inactive shells:              0
       Active shells:               10
       Active electrons:             2
       Symmetry:                    a       
       Multiplicity:                 1
       Orbital rotations:          600
     -----------------------------------

     -----------------------------------
       E2 extrapolation:             F
       Conjugacy:                    T
       Micro CI relax:               T
       Canonical orbitals:           T
       Maximum iterations:          40
       Converge threshold:    1.00E-04
       Conjugacy resets:            20
       Initial levelshift:        0.10
     -----------------------------------

 Loading old vectors from job with title :

H2


   input molecular orbitals = ./H2.mos
  output molecular orbtials = ./H2.mos

       No. of determinants:           100


  Starting Orbital Energies
    -0.391232    -0.109362    -0.001222    -0.000861    -0.000861    -0.000110
    -0.000056    -0.000056    -0.000055    -0.000026     0.478873     0.807536
     1.020007     1.401528     1.401528     1.737069     1.737069     1.812891
     1.875023     1.875023     2.047702     2.047702     2.131142     2.131142
     2.189305     2.389928     2.389928     2.941281     2.956062     3.126755
     4.400789     4.400789     4.407267     4.452769     4.452769     4.682676
     5.903800     5.965578     5.965578     6.044047     6.044047     6.064198
     6.064198     6.067182     6.067182     6.089092     6.089092     6.201803
     6.201803     6.556732     8.039798     8.039798     8.106892     8.106892
     8.162289     8.162289     8.178781     8.364234     8.364234     8.974621
     9.619542     9.684924     9.693091     9.693091     9.741979     9.741979
     9.878998     9.955239    22.478298    23.101179

  Orbital Symmetry Irreps
a    a    a    a    a    a    a    a    a    a    a    a    a    a    a   
a    a    a    a    a    a    a    a    a    a    a    a    a    a    a   
a    a    a    a    a    a    a    a    a    a    a    a    a    a    a   
a    a    a    a    a    a    a    a    a    a    a    a    a    a    a   
a    a    a    a    a    a    a    a    a    a   

 Integral file          = ./H2.aoints.0
 Record size in doubles =  65536        No. of integs per rec  =  43688
 Max. records in memory =     99        Max. records in file   = 280192
 No. of bits per label  =      8        No. of bits per value  =     64


 #quartets = 2.208D+04 #integrals = 8.244D+05 #direct =  0.0% #cached =100.0%




          %%%%% MacroIteration   1 %%%%%


          Number of sigma calls:       13
                       o<<<<< (aa):             0.00
                       o<<<<< (bb):             0.00
                       o<<<<< (ab):             0.01
                       o<<<<< (total)           0.01
                       o<<<<< (aa) ff           0.00
                       o<<<<< (aa) gop          0.00
                       o<<<<< (aa) dot          0.00
                       o<<<<< (ab) str          0.00
                       o<<<<< (ab) gath         0.00
                       o<<<<< (ab) dotab        0.00
                       o<<<<< (ab) scat         0.00
                       o<<<<< (ab) sync         0.00
                       o<<<<< Density           0.00
                       o<<<<< Density one       0.00
                       o<<<<< Density two       0.00
                       o<<<<< Density ab        0.00
                       o<<<<< Spin adapt        0.00
                       o<<<<< Symm adapt        0.00

                       o<<<<< (ab) max sync:      0.00

           >>>| Valence CI:             -1.299309108269
           >>>| MCSCF energy:           -1.025336505530
           >>>| Gradient norm:          0.266754884D-02
     --- Warning:  456 Hessian diagonals < 0.05 ---

                              ----- Line search ------

        step       energy         lsg     num-lsg   num-lsh   lsrat    time
      ------- ---------------- --------- --------- --------- ------- --------
       0.0000      -1.02533651 -1.33D-06  0.00D+00  0.00D+00 0.0D+00      0.3

          Number of sigma calls:       12
                       o<<<<< (aa):             0.00
                       o<<<<< (bb):             0.00
                       o<<<<< (ab):             0.01
                       o<<<<< (total)           0.01
                       o<<<<< (aa) ff           0.00
                       o<<<<< (aa) gop          0.00
                       o<<<<< (aa) dot          0.00
                       o<<<<< (ab) str          0.00
                       o<<<<< (ab) gath         0.00
                       o<<<<< (ab) dotab        0.00
                       o<<<<< (ab) scat         0.00
                       o<<<<< (ab) sync         0.00
                       o<<<<< Density           0.00
                       o<<<<< Density one       0.00
                       o<<<<< Density two       0.00
                       o<<<<< Density ab        0.00
                       o<<<<< Spin adapt        0.00
                       o<<<<< Symm adapt        0.00

                       o<<<<< (ab) max sync:      0.00
       1.0000      -1.02533737 -3.93D-07 -3.93D-07  9.40D-07 2.9D-01      0.5

          Number of sigma calls:       11
                       o<<<<< (aa):             0.00
                       o<<<<< (bb):             0.00
                       o<<<<< (ab):             0.02
                       o<<<<< (total)           0.02
                       o<<<<< (aa) ff           0.00
                       o<<<<< (aa) gop          0.00
                       o<<<<< (aa) dot          0.00
                       o<<<<< (ab) str          0.00
                       o<<<<< (ab) gath         0.00
                       o<<<<< (ab) dotab        0.00
                       o<<<<< (ab) scat         0.00
                       o<<<<< (ab) sync         0.00
                       o<<<<< Density           0.00
                       o<<<<< Density one       0.00
                       o<<<<< Density two       0.00
                       o<<<<< Density ab        0.00
                       o<<<<< Spin adapt        0.00
                       o<<<<< Symm adapt        0.00

                       o<<<<< (ab) max sync:      0.00
       1.4177      -1.02533745  2.84D-10  2.71D-10  9.41D-07 2.1D-04      0.7
     --- Orbitals canonicalized ---



          %%%%% MacroIteration   2 %%%%%


          Number of sigma calls:       13
                       o<<<<< (aa):             0.00
                       o<<<<< (bb):             0.00
                       o<<<<< (ab):             0.01
                       o<<<<< (total)           0.01
                       o<<<<< (aa) ff           0.00
                       o<<<<< (aa) gop          0.00
                       o<<<<< (aa) dot          0.00
                       o<<<<< (ab) str          0.00
                       o<<<<< (ab) gath         0.00
                       o<<<<< (ab) dotab        0.00
                       o<<<<< (ab) scat         0.00
                       o<<<<< (ab) sync         0.00
                       o<<<<< Density           0.00
                       o<<<<< Density one       0.00
                       o<<<<< Density two       0.00
                       o<<<<< Density ab        0.00
                       o<<<<< Spin adapt        0.00
                       o<<<<< Symm adapt        0.00

                       o<<<<< (ab) max sync:      0.00

           >>>| Valence CI:             -1.299310053409
           >>>| MCSCF energy:           -1.025337450669
           >>>| Gradient norm:          0.836752447D-03
     --- Warning:  456 Hessian diagonals < 0.05 ---
     --- Conjugacy reset ---

                              ----- Line search ------

        step       energy         lsg     num-lsg   num-lsh   lsrat    time
      ------- ---------------- --------- --------- --------- ------- --------
       0.0000      -1.02533745 -1.44D-07  0.00D+00  0.00D+00 0.0D+00      1.0

          Number of sigma calls:       10
                       o<<<<< (aa):             0.00
                       o<<<<< (bb):             0.00
                       o<<<<< (ab):             0.01
                       o<<<<< (total)           0.01
                       o<<<<< (aa) ff           0.00
                       o<<<<< (aa) gop          0.00
                       o<<<<< (aa) dot          0.00
                       o<<<<< (ab) str          0.00
                       o<<<<< (ab) gath         0.00
                       o<<<<< (ab) dotab        0.00
                       o<<<<< (ab) scat         0.00
                       o<<<<< (ab) sync         0.00
                       o<<<<< Density           0.00
                       o<<<<< Density one       0.00
                       o<<<<< Density two       0.00
                       o<<<<< Density ab        0.00
                       o<<<<< Spin adapt        0.00
                       o<<<<< Symm adapt        0.00

                       o<<<<< (ab) max sync:      0.00
       1.0000      -1.02533755 -4.89D-08 -4.89D-08  9.49D-08 3.4D-01      1.2

          Number of sigma calls:        9
                       o<<<<< (aa):             0.00
                       o<<<<< (bb):             0.00
                       o<<<<< (ab):             0.00
                       o<<<<< (total)           0.00
                       o<<<<< (aa) ff           0.00
                       o<<<<< (aa) gop          0.00
                       o<<<<< (aa) dot          0.00
                       o<<<<< (ab) str          0.00
                       o<<<<< (ab) gath         0.00
                       o<<<<< (ab) dotab        0.00
                       o<<<<< (ab) scat         0.00
                       o<<<<< (ab) sync         0.00
                       o<<<<< Density           0.00
                       o<<<<< Density one       0.00
                       o<<<<< Density two       0.00
                       o<<<<< Density ab        0.00
                       o<<<<< Spin adapt        0.00
                       o<<<<< Symm adapt        0.00

                       o<<<<< (ab) max sync:      0.00
       1.5153      -1.02533756  4.30D-11  4.03D-11  9.50D-08 3.0D-04      1.3



          %%%%% MacroIteration   3 %%%%%


          Number of sigma calls:        1
                       o<<<<< (aa):             0.00
                       o<<<<< (bb):             0.00
                       o<<<<< (ab):             0.00
                       o<<<<< (total)           0.00
                       o<<<<< (aa) ff           0.00
                       o<<<<< (aa) gop          0.00
                       o<<<<< (aa) dot          0.00
                       o<<<<< (ab) str          0.00
                       o<<<<< (ab) gath         0.00
                       o<<<<< (ab) dotab        0.00
                       o<<<<< (ab) scat         0.00
                       o<<<<< (ab) sync         0.00
                       o<<<<< Density           0.00
                       o<<<<< Density one       0.00
                       o<<<<< Density two       0.00
                       o<<<<< Density ab        0.00
                       o<<<<< Spin adapt        0.00
                       o<<<<< Symm adapt        0.00

                       o<<<<< (ab) max sync:      0.00

           >>>| Valence CI:             -1.299310162395
           >>>| MCSCF energy:           -1.025337559655
           >>>| Gradient norm:          0.410539411D-03
     --- Warning:  456 Hessian diagonals < 0.05 ---

                              ----- Line search ------

        step       energy         lsg     num-lsg   num-lsh   lsrat    time
      ------- ---------------- --------- --------- --------- ------- --------
       0.0000      -1.02533756 -1.59D-08  0.00D+00  0.00D+00 0.0D+00      1.4

          Number of sigma calls:        8
                       o<<<<< (aa):             0.00
                       o<<<<< (bb):             0.00
                       o<<<<< (ab):             0.00
                       o<<<<< (total)           0.00
                       o<<<<< (aa) ff           0.00
                       o<<<<< (aa) gop          0.00
                       o<<<<< (aa) dot          0.00
                       o<<<<< (ab) str          0.00
                       o<<<<< (ab) gath         0.00
                       o<<<<< (ab) dotab        0.00
                       o<<<<< (ab) scat         0.00
                       o<<<<< (ab) sync         0.00
                       o<<<<< Density           0.00
                       o<<<<< Density one       0.00
                       o<<<<< Density two       0.00
                       o<<<<< Density ab        0.00
                       o<<<<< Spin adapt        0.00
                       o<<<<< Symm adapt        0.00

                       o<<<<< (ab) max sync:      0.00
       1.0000      -1.02533757 -4.18D-09 -4.18D-09  1.17D-08 2.6D-01      1.4

          Number of sigma calls:        8
                       o<<<<< (aa):             0.00
                       o<<<<< (bb):             0.00
                       o<<<<< (ab):             0.01
                       o<<<<< (total)           0.01
                       o<<<<< (aa) ff           0.00
                       o<<<<< (aa) gop          0.00
                       o<<<<< (aa) dot          0.00
                       o<<<<< (ab) str          0.00
                       o<<<<< (ab) gath         0.00
                       o<<<<< (ab) dotab        0.00
                       o<<<<< (ab) scat         0.00
                       o<<<<< (ab) sync         0.00
                       o<<<<< Density           0.00
                       o<<<<< Density one       0.00
                       o<<<<< Density two       0.00
                       o<<<<< Density ab        0.00
                       o<<<<< Spin adapt        0.00
                       o<<<<< Symm adapt        0.00

                       o<<<<< (ab) max sync:      0.00
       1.3559      -1.02533757  9.57D-14  8.03D-14  1.17D-08 6.0D-06      1.5



          %%%%% MacroIteration   4 %%%%%


          Number of sigma calls:        1
                       o<<<<< (aa):             0.00
                       o<<<<< (bb):             0.00
                       o<<<<< (ab):             0.00
                       o<<<<< (total)           0.00
                       o<<<<< (aa) ff           0.00
                       o<<<<< (aa) gop          0.00
                       o<<<<< (aa) dot          0.00
                       o<<<<< (ab) str          0.00
                       o<<<<< (ab) gath         0.00
                       o<<<<< (ab) dotab        0.00
                       o<<<<< (ab) scat         0.00
                       o<<<<< (ab) sync         0.00
                       o<<<<< Density           0.00
                       o<<<<< Density one       0.00
                       o<<<<< Density two       0.00
                       o<<<<< Density ab        0.00
                       o<<<<< Spin adapt        0.00
                       o<<<<< Symm adapt        0.00

                       o<<<<< (ab) max sync:      0.00

           >>>| Valence CI:             -1.299310173193
           >>>| MCSCF energy:           -1.025337570453
           >>>| Gradient norm:          0.148842452D-03
     --- Warning:  456 Hessian diagonals < 0.05 ---

                              ----- Line search ------

        step       energy         lsg     num-lsg   num-lsh   lsrat    time
      ------- ---------------- --------- --------- --------- ------- --------
       0.0000      -1.02533757 -1.37D-08  0.00D+00  0.00D+00 0.0D+00      1.7

          Number of sigma calls:        8
                       o<<<<< (aa):             0.00
                       o<<<<< (bb):             0.00
                       o<<<<< (ab):             0.01
                       o<<<<< (total)           0.01
                       o<<<<< (aa) ff           0.00
                       o<<<<< (aa) gop          0.00
                       o<<<<< (aa) dot          0.00
                       o<<<<< (ab) str          0.00
                       o<<<<< (ab) gath         0.00
                       o<<<<< (ab) dotab        0.00
                       o<<<<< (ab) scat         0.00
                       o<<<<< (ab) sync         0.00
                       o<<<<< Density           0.00
                       o<<<<< Density one       0.00
                       o<<<<< Density two       0.00
                       o<<<<< Density ab        0.00
                       o<<<<< Spin adapt        0.00
                       o<<<<< Symm adapt        0.00

                       o<<<<< (ab) max sync:      0.00
       1.0000      -1.02533758 -7.13D-09 -7.13D-09  6.58D-09 5.2D-01      1.9

          Number of sigma calls:        8
                       o<<<<< (aa):             0.00
                       o<<<<< (bb):             0.00
                       o<<<<< (ab):             0.01
                       o<<<<< (total)           0.01
                       o<<<<< (aa) ff           0.00
                       o<<<<< (aa) gop          0.00
                       o<<<<< (aa) dot          0.00
                       o<<<<< (ab) str          0.00
                       o<<<<< (ab) gath         0.00
                       o<<<<< (ab) dotab        0.00
                       o<<<<< (ab) scat         0.00
                       o<<<<< (ab) sync         0.00
                       o<<<<< Density           0.00
                       o<<<<< Density one       0.00
                       o<<<<< Density two       0.00
                       o<<<<< Density ab        0.00
                       o<<<<< Spin adapt        0.00
                       o<<<<< Symm adapt        0.00

                       o<<<<< (ab) max sync:      0.00
       2.0829      -1.02533758  7.92D-12  7.24D-12  6.59D-09 5.8D-04      2.1



          %%%%% MacroIteration   5 %%%%%


          Number of sigma calls:        1
                       o<<<<< (aa):             0.00
                       o<<<<< (bb):             0.00
                       o<<<<< (ab):             0.00
                       o<<<<< (total)           0.00
                       o<<<<< (aa) ff           0.00
                       o<<<<< (aa) gop          0.00
                       o<<<<< (aa) dot          0.00
                       o<<<<< (ab) str          0.00
                       o<<<<< (ab) gath         0.00
                       o<<<<< (ab) dotab        0.00
                       o<<<<< (ab) scat         0.00
                       o<<<<< (ab) sync         0.00
                       o<<<<< Density           0.00
                       o<<<<< Density one       0.00
                       o<<<<< Density two       0.00
                       o<<<<< Density ab        0.00
                       o<<<<< Spin adapt        0.00
                       o<<<<< Symm adapt        0.00

                       o<<<<< (ab) max sync:      0.00

           >>>| Valence CI:             -1.299310187469
           >>>| MCSCF energy:           -1.025337584729
           >>>| Gradient norm:          0.654600054D-04




     ==============================
            MCSCF Converged
     ==============================



          Canonical Eigenvalues

              1      
    1   -0.3873
    2   -0.1130
    3   -0.0012
    4   -0.0008
    5   -0.0008
    6   -0.0001
    7   -0.0001
    8   -0.0001
    9   -0.0001
   10   -0.0000
   11    0.4782
   12    0.8075
   13    1.0153
   14    1.3995
   15    1.3995
   16    1.7480
   17    1.7480
   18    1.8029
   19    1.8745
   20    1.8745
   21    2.0510
   22    2.0510
   23    2.1274
   24    2.1274
   25    2.1751
   26    2.3735
   27    2.3735
   28    2.9441
   29    2.9446
   30    3.1057
   31    4.3839
   32    4.4034
   33    4.4034
   34    4.4540
   35    4.4540
   36    4.6941
   37    5.9111
   38    5.9784
   39    5.9784
   40    6.0478
   41    6.0478
   42    6.0644
   43    6.0644
   44    6.0668
   45    6.0668
   46    6.0850
   47    6.0850
   48    6.1809
   49    6.1809
   50    6.4939
   51    8.0388
   52    8.0388
   53    8.1088
   54    8.1088
   55    8.1578
   56    8.1598
   57    8.1598
   58    8.3499
   59    8.3499
   60    8.9382
   61    9.6187
   62    9.6843
   63    9.6917
   64    9.6917
   65    9.7424
   66    9.7424
   67    9.8544
   68    9.9545
   69   22.4260
   70   23.0952


          Converged CI vector

   Index           Coefficient          Config. Occupation
         1         -0.89939764          1  1
        12          0.43405032          2  2
        23          0.03211370          3  3
        34          0.02661237          4  4
        45          0.02661237          5  5

          Number of sigma calls:        1
                       o<<<<< (aa):             0.00
                       o<<<<< (bb):             0.00
                       o<<<<< (ab):             0.00
                       o<<<<< (total)           0.00
                       o<<<<< (aa) ff           0.00
                       o<<<<< (aa) gop          0.00
                       o<<<<< (aa) dot          0.00
                       o<<<<< (ab) str          0.00
                       o<<<<< (ab) gath         0.00
                       o<<<<< (ab) dotab        0.00
                       o<<<<< (ab) scat         0.00
                       o<<<<< (ab) sync         0.00
                       o<<<<< Density           0.00
                       o<<<<< Density one       0.00
                       o<<<<< Density two       0.00
                       o<<<<< Density ab        0.00
                       o<<<<< Spin adapt        0.00
                       o<<<<< Symm adapt        0.00

                       o<<<<< (ab) max sync:      0.00



          Natural orbital occupation numbers

              1      
    1    1.6179
    2    0.3768
    3    0.0021
    4    0.0014
    5    0.0014
    6    0.0002
    7    0.0001
    8    0.0001
    9    0.0001
   10    0.0000


          Number of sigma calls:       13
                       o<<<<< (aa):             0.00
                       o<<<<< (bb):             0.00
                       o<<<<< (ab):             0.00
                       o<<<<< (total)           0.00
                       o<<<<< (aa) ff           0.00
                       o<<<<< (aa) gop          0.00
                       o<<<<< (aa) dot          0.00
                       o<<<<< (ab) str          0.00
                       o<<<<< (ab) gath         0.00
                       o<<<<< (ab) dotab        0.00
                       o<<<<< (ab) scat         0.00
                       o<<<<< (ab) sync         0.00
                       o<<<<< Density           0.00
                       o<<<<< Density one       0.00
                       o<<<<< Density two       0.00
                       o<<<<< Density ab        0.00
                       o<<<<< Spin adapt        0.00
                       o<<<<< Symm adapt        0.00

                       o<<<<< (ab) max sync:      0.00


       Final MCSCF results 
       ------------------- 

       Total MCSCF energy =     -1.025337584729
            Gradient norm =      6.5D-05

    CPU time for solution =      2.3s
   Wall time for solution =      3.3s



                        Analysis of MCSCF natural orbitals
                        ----------------------------------

 Vector    1  Occ=1.617942D+00  E=-3.873179D-01  Symmetry=a
              MO Center=  1.6D-15,  9.7D-13, -1.0D-15, r^2= 1.7D+00
   Bfn.  Coefficient  Atom+Function         Bfn.  Coefficient  Atom+Function  
  ----- ------------  ---------------      ----- ------------  ---------------
     3      0.301936  1 H  s                 38      0.301936  2 H  s          
     4      0.199129  1 H  s                 39      0.199129  2 H  s          
     2      0.157891  1 H  s                 37      0.157891  2 H  s          

 Vector    2  Occ=3.767994D-01  E=-1.129781D-01  Symmetry=a
              MO Center=  8.3D-16, -2.1D-12, -1.6D-15, r^2= 1.8D+00
   Bfn.  Coefficient  Atom+Function         Bfn.  Coefficient  Atom+Function  
  ----- ------------  ---------------      ----- ------------  ---------------
     3      0.423048  1 H  s                 38     -0.423048  2 H  s          
     2      0.215967  1 H  s                 37     -0.215967  2 H  s          
     4      0.193715  1 H  s                 39     -0.193715  2 H  s          

 Vector    3  Occ=2.068945D-03  E=-1.168109D-03  Symmetry=a
              MO Center= -3.6D-14,  7.6D-11,  2.4D-14, r^2= 2.5D+00
   Bfn.  Coefficient  Atom+Function         Bfn.  Coefficient  Atom+Function  
  ----- ------------  ---------------      ----- ------------  ---------------
     4      0.501600  1 H  s                 39      0.501600  2 H  s          
     9     -0.393962  1 H  py                44      0.393962  2 H  py         
    12     -0.387243  1 H  py                47      0.387243  2 H  py         
     3     -0.340623  1 H  s                 38     -0.340623  2 H  s          

 Vector    4  Occ=1.416436D-03  E=-8.090718D-04  Symmetry=a
              MO Center=  8.5D-14,  1.9D-11, -7.0D-15, r^2= 1.7D+00
   Bfn.  Coefficient  Atom+Function         Bfn.  Coefficient  Atom+Function  
  ----- ------------  ---------------      ----- ------------  ---------------
    11      0.703701  1 H  px                46      0.703701  2 H  px         
     8     -0.604976  1 H  px                43     -0.604976  2 H  px         
    29      0.316693  1 H  fxyy              64      0.316693  2 H  fxyy       
    21      0.282283  1 H  dxy               56     -0.282283  2 H  dxy        
    26      0.262738  1 H  fxxx              31      0.262738  1 H  fxzz       

 Vector    5  Occ=1.416436D-03  E=-8.090718D-04  Symmetry=a
              MO Center= -2.8D-15,  1.9D-11, -4.1D-14, r^2= 1.7D+00
   Bfn.  Coefficient  Atom+Function         Bfn.  Coefficient  Atom+Function  
  ----- ------------  ---------------      ----- ------------  ---------------
    13      0.703701  1 H  pz                48      0.703701  2 H  pz         
    10     -0.604976  1 H  pz                45     -0.604976  2 H  pz         
    33      0.316693  1 H  fyyz              68      0.316693  2 H  fyyz       
    24      0.282283  1 H  dyz               59     -0.282283  2 H  dyz        
    28      0.262738  1 H  fxxz              35      0.262738  1 H  fzzz       

 Vector    6  Occ=1.514139D-04  E=-1.019729D-04  Symmetry=a
              MO Center= -3.6D-14,  1.1D-10,  2.0D-14, r^2= 1.7D+00
   Bfn.  Coefficient  Atom+Function         Bfn.  Coefficient  Atom+Function  
  ----- ------------  ---------------      ----- ------------  ---------------
     2      0.714273  1 H  s                 37      0.714273  2 H  s          
     9      0.553907  1 H  py                44     -0.553907  2 H  py         
    12     -0.338260  1 H  py                47      0.338260  2 H  py         
     3     -0.314540  1 H  s                 38     -0.314540  2 H  s          
     4     -0.308161  1 H  s                 39     -0.308161  2 H  s          

 Vector    7  Occ=6.205382D-05  E=-5.148521D-05  Symmetry=a
              MO Center= -8.6D-13, -8.3D-12, -9.5D-13, r^2= 1.5D+00
   Bfn.  Coefficient  Atom+Function         Bfn.  Coefficient  Atom+Function  
  ----- ------------  ---------------      ----- ------------  ---------------
    10      0.563853  1 H  pz                45     -0.563853  2 H  pz         
     8      0.511549  1 H  px                43     -0.511549  2 H  px         
    13      0.261001  1 H  pz                48     -0.261001  2 H  pz         
    11      0.236790  1 H  px                46     -0.236790  2 H  px         
    24      0.174201  1 H  dyz               59      0.174201  2 H  dyz        

 Vector    8  Occ=6.205382D-05  E=-5.148521D-05  Symmetry=a
              MO Center= -5.0D-12, -8.3D-12,  4.5D-12, r^2= 1.5D+00
   Bfn.  Coefficient  Atom+Function         Bfn.  Coefficient  Atom+Function  
  ----- ------------  ---------------      ----- ------------  ---------------
     8      0.563853  1 H  px                43     -0.563853  2 H  px         
    10     -0.511549  1 H  pz                45      0.511549  2 H  pz         
    11      0.261001  1 H  px                46     -0.261001  2 H  px         
    13     -0.236790  1 H  pz                48      0.236790  2 H  pz         
    21      0.174201  1 H  dxy               56      0.174201  2 H  dxy        

 Vector    9  Occ=5.857037D-05  E=-5.097703D-05  Symmetry=a
              MO Center=  8.0D-12,  3.2D-10, -4.9D-12, r^2= 1.9D+00
   Bfn.  Coefficient  Atom+Function         Bfn.  Coefficient  Atom+Function  
  ----- ------------  ---------------      ----- ------------  ---------------
     9      0.728511  1 H  py                44      0.728511  2 H  py         
     2      0.656436  1 H  s                 37     -0.656436  2 H  s          
     3     -0.554000  1 H  s                 38      0.554000  2 H  s          
     4     -0.271163  1 H  s                 39      0.271163  2 H  s          
    27     -0.187376  1 H  fxxy              34     -0.187376  1 H  fyzz       

 Vector   10  Occ=2.274261D-05  E=-2.445300D-05  Symmetry=a
              MO Center=  9.6D-15,  1.9D-09, -5.4D-15, r^2= 2.4D+00
   Bfn.  Coefficient  Atom+Function         Bfn.  Coefficient  Atom+Function  
  ----- ------------  ---------------      ----- ------------  ---------------
     9      3.604631  1 H  py                44     -3.604631  2 H  py         
    27     -1.561730  1 H  fxxy              34     -1.561730  1 H  fyzz       
    62      1.561730  2 H  fxxy              69      1.561730  2 H  fyzz       
     3     -1.385340  1 H  s                 38     -1.385340  2 H  s          
    32     -1.232939  1 H  fyyy              67      1.232939  2 H  fyyy       

 Vector   11  Occ=0.000000D+00  E= 4.781825D-01  Symmetry=a
              MO Center=  6.2D-13,  1.9D-10, -3.7D-13, r^2= 7.7D+00
   Bfn.  Coefficient  Atom+Function         Bfn.  Coefficient  Atom+Function  
  ----- ------------  ---------------      ----- ------------  ---------------
     3      2.765427  1 H  s                 38     -2.765427  2 H  s          
     4     -2.447205  1 H  s                 39      2.447205  2 H  s          
     2     -0.671475  1 H  s                 37      0.671475  2 H  s          
     9      0.628891  1 H  py                44      0.628891  2 H  py         
    12     -0.605412  1 H  py                47     -0.605412  2 H  py         

 Vector   12  Occ=0.000000D+00  E= 8.074712D-01  Symmetry=a
              MO Center= -2.4D-15, -2.1D-10,  1.7D-15, r^2= 5.4D+00
   Bfn.  Coefficient  Atom+Function         Bfn.  Coefficient  Atom+Function  
  ----- ------------  ---------------      ----- ------------  ---------------
     3      3.766786  1 H  s                 38      3.766786  2 H  s          
     4     -1.450502  1 H  s                 39     -1.450502  2 H  s          
     2     -1.186541  1 H  s                 37     -1.186541  2 H  s          
     9      0.708219  1 H  py                44     -0.708219  2 H  py         
    20     -0.583834  1 H  dxx               23     -0.582532  1 H  dyy        

 Vector   13  Occ=0.000000D+00  E= 1.015282D+00  Symmetry=a
              MO Center= -5.5D-12, -2.8D-09,  3.3D-12, r^2= 2.9D+00
   Bfn.  Coefficient  Atom+Function         Bfn.  Coefficient  Atom+Function  
  ----- ------------  ---------------      ----- ------------  ---------------
     9     -2.961316  1 H  py                44     -2.961316  2 H  py         
     3      2.752178  1 H  s                 38     -2.752178  2 H  s          
    12      1.864825  1 H  py                47      1.864825  2 H  py         
    32      1.152675  1 H  fyyy              67      1.152675  2 H  fyyy       
    27      1.110490  1 H  fxxy              34      1.110490  1 H  fyzz       

 Vector   14  Occ=0.000000D+00  E= 1.399483D+00  Symmetry=a
              MO Center= -9.8D-14, -5.8D-11, -1.6D-12, r^2= 3.3D+00
   Bfn.  Coefficient  Atom+Function         Bfn.  Coefficient  Atom+Function  
  ----- ------------  ---------------      ----- ------------  ---------------
    10      5.625511  1 H  pz                45     -5.625511  2 H  pz         
    33     -2.185877  1 H  fyyz              68      2.185877  2 H  fyyz       
    28     -2.170528  1 H  fxxz              35     -2.170528  1 H  fzzz       
    63      2.170528  2 H  fxxz              70      2.170528  2 H  fzzz       
    13     -1.638031  1 H  pz                48      1.638031  2 H  pz         

 Vector   15  Occ=0.000000D+00  E= 1.399483D+00  Symmetry=a
              MO Center=  3.1D-12, -5.9D-11, -1.9D-13, r^2= 3.3D+00
   Bfn.  Coefficient  Atom+Function         Bfn.  Coefficient  Atom+Function  
  ----- ------------  ---------------      ----- ------------  ---------------
     8      5.625511  1 H  px                43     -5.625511  2 H  px         
    29     -2.185877  1 H  fxyy              64      2.185877  2 H  fxyy       
    26     -2.170528  1 H  fxxx              31     -2.170528  1 H  fxzz       
    61      2.170528  2 H  fxxx              66      2.170528  2 H  fxzz       
    11     -1.638031  1 H  px                46      1.638031  2 H  px         

 Vector   16  Occ=0.000000D+00  E= 1.747999D+00  Symmetry=a
              MO Center=  4.8D-16,  3.7D-11,  1.6D-14, r^2= 2.4D+00
   Bfn.  Coefficient  Atom+Function         Bfn.  Coefficient  Atom+Function  
  ----- ------------  ---------------      ----- ------------  ---------------
    10      5.684340  1 H  pz                45      5.684340  2 H  pz         
    28     -2.240202  1 H  fxxz              35     -2.240202  1 H  fzzz       
    63     -2.240202  2 H  fxxz              70     -2.240202  2 H  fzzz       
    33     -2.197514  1 H  fyyz              68     -2.197514  2 H  fyyz       
     7     -1.509717  1 H  pz                42     -1.509717  2 H  pz         

 Vector   17  Occ=0.000000D+00  E= 1.747999D+00  Symmetry=a
              MO Center= -2.5D-14,  3.7D-11,  8.2D-16, r^2= 2.4D+00
   Bfn.  Coefficient  Atom+Function         Bfn.  Coefficient  Atom+Function  
  ----- ------------  ---------------      ----- ------------  ---------------
     8      5.684340  1 H  px                43      5.684340  2 H  px         
    26     -2.240202  1 H  fxxx              31     -2.240202  1 H  fxzz       
    61     -2.240202  2 H  fxxx              66     -2.240202  2 H  fxzz       
    29     -2.197514  1 H  fxyy              64     -2.197514  2 H  fxyy       
     5     -1.509717  1 H  px                40     -1.509717  2 H  px         

 Vector   18  Occ=0.000000D+00  E= 1.802914D+00  Symmetry=a
              MO Center= -4.3D-13,  1.1D-09,  2.5D-13, r^2= 3.7D+00
   Bfn.  Coefficient  Atom+Function         Bfn.  Coefficient  Atom+Function  
  ----- ------------  ---------------      ----- ------------  ---------------
     9      5.431078  1 H  py                44      5.431078  2 H  py         
     3      2.158756  1 H  s                 38     -2.158756  2 H  s          
    32     -2.068456  1 H  fyyy              67     -2.068456  2 H  fyyy       
    27     -2.031859  1 H  fxxy              34     -2.031859  1 H  fyzz       
    62     -2.031859  2 H  fxxy              69     -2.031859  2 H  fyzz       

 Vector   19  Occ=0.000000D+00  E= 1.874465D+00  Symmetry=a
              MO Center= -1.7D-15,  1.2D-11, -2.6D-15, r^2= 2.1D+00
   Bfn.  Coefficient  Atom+Function         Bfn.  Coefficient  Atom+Function  
  ----- ------------  ---------------      ----- ------------  ---------------
    10      2.615014  1 H  pz                45      2.615014  2 H  pz         
    24     -1.055407  1 H  dyz               59      1.055407  2 H  dyz        
    33     -1.033211  1 H  fyyz              68     -1.033211  2 H  fyyz       
    28     -1.010195  1 H  fxxz              35     -1.010195  1 H  fzzz       
    63     -1.010195  2 H  fxxz              70     -1.010195  2 H  fzzz       

 Vector   20  Occ=0.000000D+00  E= 1.874465D+00  Symmetry=a
              MO Center=  8.1D-17,  1.2D-11,  1.9D-15, r^2= 2.1D+00
   Bfn.  Coefficient  Atom+Function         Bfn.  Coefficient  Atom+Function  
  ----- ------------  ---------------      ----- ------------  ---------------
     8      2.615014  1 H  px                43      2.615014  2 H  px         
    21     -1.055407  1 H  dxy               56      1.055407  2 H  dxy        
    29     -1.033211  1 H  fxyy              64     -1.033211  2 H  fxyy       
    26     -1.010195  1 H  fxxx              31     -1.010195  1 H  fxzz       
    61     -1.010195  2 H  fxxx              66     -1.010195  2 H  fxzz       


 Wrote Lagrangian and 1- and 2-particle density matrices to ./H2.mcpdm


     Multipole analysis of the density
     ---------------------------------

     L   x y z        total        nuclear
     -   - - -        -----        -------
     0   0 0 0     -0.000000      2.000000

     1   1 0 0     -0.000000      0.000000
     1   0 1 0     -0.000000      0.000000
     1   0 0 1      0.000000      0.000000

     2   2 0 0     -2.109708      0.000000
     2   1 1 0      0.000000      0.000000
     2   1 0 1     -0.000000      0.000000
     2   0 2 0     -1.326411      6.661250
     2   0 1 1     -0.000000      0.000000
     2   0 0 2     -2.109708      0.000000


  Mulliken analysis of the total density
  --------------------------------------

    Atom       Charge   Shell Charges
 -----------   ------   -------------------------------------------------------
    1 H    1     1.00   0.04  0.20  0.47  0.28  0.00 -0.00  0.01  0.00  0.00  0.00
    2 H    1     1.00   0.04  0.20  0.47  0.28  0.00 -0.00  0.01  0.00  0.00  0.00

    Mulliken analysis of the active space density
    ---------------------------------------------

    Atom       Charge   Shell Charges
 -----------   ------   -------------------------------------------------------
    1 H    1     1.00   0.04  0.20  0.47  0.28  0.00 -0.00  0.01  0.00  0.00  0.00
    2 H    1     1.00   0.04  0.20  0.47  0.28  0.00 -0.00  0.01  0.00  0.00  0.00

 Parallel integral file used      19 records with       0 large values


 Task  times  cpu:        2.3s     wall:        3.5s


                                NWChem Input Module
                                -------------------


                                 NWChem SCF Module
                                 -----------------


                                        H2



  ao basis        = "ao basis"
  functions       =    70
  atoms           =     2
  closed shells   =     1
  open shells     =     0
  charge          =   0.00
  wavefunction    = RHF 
  input vectors   = ./H2.mos
  output vectors  = ./H2-3.65.mos
  use symmetry    = F
  symmetry adapt  = F


 Summary of "ao basis" -> "ao basis" (cartesian)
 ------------------------------------------------------------------------------
       Tag                 Description            Shells   Functions and Types
 ---------------- ------------------------------  ------  ---------------------
 H                          cc-pVQZ                 10       35   4s3p2d1f



 Forming initial guess at       3.5s


 Loading old vectors from job with title :

H2


 Starting SCF solution at       3.5s



 ----------------------------------------------
         Quadratically convergent ROHF

 Convergence threshold     :          1.000E-04
 Maximum no. of iterations :           30
 Final Fock-matrix accuracy:          1.000E-07
 ----------------------------------------------


 Integral file          = ./H2.aoints.0
 Record size in doubles =  65536        No. of integs per rec  =  43688
 Max. records in memory =     99        Max. records in file   = 280243
 No. of bits per label  =      8        No. of bits per value  =     64


 #quartets = 2.176D+04 #integrals = 7.432D+05 #direct =  0.0% #cached =100.0%



       Final RHF  results 
       ------------------ 

         Total SCF energy =     -0.927046681754
      One-electron energy =     -1.641090275906
      Two-electron energy =      0.440070991412
 Nuclear repulsion energy =      0.273972602740

        Time for solution =      0.0s


             Final eigenvalues
             -----------------

              1      
    1   -0.3873
    2   -0.1130
    3   -0.0012
    4   -0.0008
    5   -0.0008
    6   -0.0001
    7   -0.0001
    8   -0.0001
    9   -0.0001
   10   -0.0000
   11    0.4782

                       ROHF Final Molecular Orbital Analysis
                       -------------------------------------

 Vector    1  Occ=2.000000D+00  E=-3.873179D-01
              MO Center=  1.6D-15,  9.7D-13, -1.0D-15, r^2= 1.7D+00
   Bfn.  Coefficient  Atom+Function         Bfn.  Coefficient  Atom+Function  
  ----- ------------  ---------------      ----- ------------  ---------------
     3      0.301936  1 H  s                 38      0.301936  2 H  s          
     4      0.199129  1 H  s                 39      0.199129  2 H  s          
     2      0.157891  1 H  s                 37      0.157891  2 H  s          

 Vector    2  Occ=0.000000D+00  E=-1.129781D-01
              MO Center=  8.3D-16, -2.1D-12, -1.6D-15, r^2= 1.8D+00
   Bfn.  Coefficient  Atom+Function         Bfn.  Coefficient  Atom+Function  
  ----- ------------  ---------------      ----- ------------  ---------------
     3      0.423048  1 H  s                 38     -0.423048  2 H  s          
     2      0.215967  1 H  s                 37     -0.215967  2 H  s          
     4      0.193715  1 H  s                 39     -0.193715  2 H  s          

 Vector    3  Occ=0.000000D+00  E=-1.168109D-03
              MO Center= -3.6D-14,  7.6D-11,  2.4D-14, r^2= 2.5D+00
   Bfn.  Coefficient  Atom+Function         Bfn.  Coefficient  Atom+Function  
  ----- ------------  ---------------      ----- ------------  ---------------
     4      0.501600  1 H  s                 39      0.501600  2 H  s          
     9     -0.393962  1 H  py                44      0.393962  2 H  py         
    12     -0.387243  1 H  py                47      0.387243  2 H  py         
     3     -0.340623  1 H  s                 38     -0.340623  2 H  s          

 Vector    4  Occ=0.000000D+00  E=-8.090718D-04
              MO Center=  8.5D-14,  1.9D-11, -7.0D-15, r^2= 1.7D+00
   Bfn.  Coefficient  Atom+Function         Bfn.  Coefficient  Atom+Function  
  ----- ------------  ---------------      ----- ------------  ---------------
    11      0.703701  1 H  px                46      0.703701  2 H  px         
     8     -0.604976  1 H  px                43     -0.604976  2 H  px         
    29      0.316693  1 H  fxyy              64      0.316693  2 H  fxyy       
    21      0.282283  1 H  dxy               56     -0.282283  2 H  dxy        
    26      0.262738  1 H  fxxx              31      0.262738  1 H  fxzz       

 Vector    5  Occ=0.000000D+00  E=-8.090718D-04
              MO Center= -2.8D-15,  1.9D-11, -4.1D-14, r^2= 1.7D+00
   Bfn.  Coefficient  Atom+Function         Bfn.  Coefficient  Atom+Function  
  ----- ------------  ---------------      ----- ------------  ---------------
    13      0.703701  1 H  pz                48      0.703701  2 H  pz         
    10     -0.604976  1 H  pz                45     -0.604976  2 H  pz         
    33      0.316693  1 H  fyyz              68      0.316693  2 H  fyyz       
    24      0.282283  1 H  dyz               59     -0.282283  2 H  dyz        
    28      0.262738  1 H  fxxz              35      0.262738  1 H  fzzz       

 Vector    6  Occ=0.000000D+00  E=-1.019729D-04
              MO Center= -3.6D-14,  1.1D-10,  2.0D-14, r^2= 1.7D+00
   Bfn.  Coefficient  Atom+Function         Bfn.  Coefficient  Atom+Function  
  ----- ------------  ---------------      ----- ------------  ---------------
     2      0.714273  1 H  s                 37      0.714273  2 H  s          
     9      0.553907  1 H  py                44     -0.553907  2 H  py         
    12     -0.338260  1 H  py                47      0.338260  2 H  py         
     3     -0.314540  1 H  s                 38     -0.314540  2 H  s          
     4     -0.308161  1 H  s                 39     -0.308161  2 H  s          

 Vector    7  Occ=0.000000D+00  E=-5.148521D-05
              MO Center= -8.6D-13, -8.3D-12, -9.5D-13, r^2= 1.5D+00
   Bfn.  Coefficient  Atom+Function         Bfn.  Coefficient  Atom+Function  
  ----- ------------  ---------------      ----- ------------  ---------------
    10      0.563853  1 H  pz                45     -0.563853  2 H  pz         
     8      0.511549  1 H  px                43     -0.511549  2 H  px         
    13      0.261001  1 H  pz                48     -0.261001  2 H  pz         
    11      0.236790  1 H  px                46     -0.236790  2 H  px         
    24      0.174201  1 H  dyz               59      0.174201  2 H  dyz        

 Vector    8  Occ=0.000000D+00  E=-5.148521D-05
              MO Center= -5.0D-12, -8.3D-12,  4.5D-12, r^2= 1.5D+00
   Bfn.  Coefficient  Atom+Function         Bfn.  Coefficient  Atom+Function  
  ----- ------------  ---------------      ----- ------------  ---------------
     8      0.563853  1 H  px                43     -0.563853  2 H  px         
    10     -0.511549  1 H  pz                45      0.511549  2 H  pz         
    11      0.261001  1 H  px                46     -0.261001  2 H  px         
    13     -0.236790  1 H  pz                48      0.236790  2 H  pz         
    21      0.174201  1 H  dxy               56      0.174201  2 H  dxy        

 Vector    9  Occ=0.000000D+00  E=-5.097703D-05
              MO Center=  8.0D-12,  3.2D-10, -4.9D-12, r^2= 1.9D+00
   Bfn.  Coefficient  Atom+Function         Bfn.  Coefficient  Atom+Function  
  ----- ------------  ---------------      ----- ------------  ---------------
     9      0.728511  1 H  py                44      0.728511  2 H  py         
     2      0.656436  1 H  s                 37     -0.656436  2 H  s          
     3     -0.554000  1 H  s                 38      0.554000  2 H  s          
     4     -0.271163  1 H  s                 39      0.271163  2 H  s          
    27     -0.187376  1 H  fxxy              34     -0.187376  1 H  fyzz       

 Vector   10  Occ=0.000000D+00  E=-2.445300D-05
              MO Center=  9.6D-15,  1.9D-09, -5.4D-15, r^2= 2.4D+00
   Bfn.  Coefficient  Atom+Function         Bfn.  Coefficient  Atom+Function  
  ----- ------------  ---------------      ----- ------------  ---------------
     9      3.604631  1 H  py                44     -3.604631  2 H  py         
    27     -1.561730  1 H  fxxy              34     -1.561730  1 H  fyzz       
    62      1.561730  2 H  fxxy              69      1.561730  2 H  fyzz       
     3     -1.385340  1 H  s                 38     -1.385340  2 H  s          
    32     -1.232939  1 H  fyyy              67      1.232939  2 H  fyyy       

 Vector   11  Occ=0.000000D+00  E= 4.781825D-01
              MO Center=  6.2D-13,  1.9D-10, -3.7D-13, r^2= 7.7D+00
   Bfn.  Coefficient  Atom+Function         Bfn.  Coefficient  Atom+Function  
  ----- ------------  ---------------      ----- ------------  ---------------
     3      2.765427  1 H  s                 38     -2.765427  2 H  s          
     4     -2.447205  1 H  s                 39      2.447205  2 H  s          
     2     -0.671475  1 H  s                 37      0.671475  2 H  s          
     9      0.628891  1 H  py                44      0.628891  2 H  py         
    12     -0.605412  1 H  py                47     -0.605412  2 H  py         

 Vector   12  Occ=0.000000D+00  E= 8.074712D-01
              MO Center= -2.4D-15, -2.1D-10,  1.7D-15, r^2= 5.4D+00
   Bfn.  Coefficient  Atom+Function         Bfn.  Coefficient  Atom+Function  
  ----- ------------  ---------------      ----- ------------  ---------------
     3      3.766786  1 H  s                 38      3.766786  2 H  s          
     4     -1.450502  1 H  s                 39     -1.450502  2 H  s          
     2     -1.186541  1 H  s                 37     -1.186541  2 H  s          
     9      0.708219  1 H  py                44     -0.708219  2 H  py         
    20     -0.583834  1 H  dxx               23     -0.582532  1 H  dyy        


 center of mass
 --------------
 x =   0.00000000 y =   0.00000000 z =   0.00000000

 moments of inertia (a.u.)
 ------------------
           6.713374281250           0.000000000000           0.000000000000
           0.000000000000           0.000000000000           0.000000000000
           0.000000000000           0.000000000000           6.713374281250

  Mulliken analysis of the total density
  --------------------------------------

    Atom       Charge   Shell Charges
 -----------   ------   -------------------------------------------------------
    1 H    1     1.00   0.04  0.19  0.45  0.31  0.00 -0.00  0.00  0.00  0.00  0.00
    2 H    1     1.00   0.04  0.19  0.45  0.31  0.00 -0.00  0.00  0.00  0.00  0.00

       Multipole analysis of the density wrt the origin
       ------------------------------------------------

     L   x y z        total         open         nuclear
     -   - - -        -----         ----         -------
     0   0 0 0     -0.000000      0.000000      2.000000

     1   1 0 0     -0.000000      0.000000      0.000000
     1   0 1 0     -0.000000      0.000000      0.000000
     1   0 0 1      0.000000      0.000000      0.000000

     2   2 0 0     -2.223658      0.000000      0.000000
     2   1 1 0      0.000000      0.000000      0.000000
     2   1 0 1     -0.000000      0.000000      0.000000
     2   0 2 0     -0.938296      0.000000      6.661250
     2   0 1 1      0.000000      0.000000      0.000000
     2   0 0 2     -2.223658      0.000000      0.000000


 Parallel integral file used      18 records with       0 large values

                   NWChem Extensible Many-Electron Theory Module
                   ---------------------------------------------

              ======================================================
                   This portion of the program was automatically
                  generated by a Tensor Contraction Engine (TCE).
                  The development of this portion of the program
                 and TCE was supported by US Department of Energy,
                Office of Science, Office of Basic Energy Science.
                      TCE is a product of Battelle and PNNL.
              Please cite: S.Hirata, J.Phys.Chem.A 107, 9887 (2003).
              ======================================================

                                        H2


            General Information
            -------------------
      Number of processors :     1
         Wavefunction type : Restricted Hartree-Fock
          No. of electrons :     2
           Alpha electrons :     1
            Beta electrons :     1
           No. of orbitals :   140
            Alpha orbitals :    70
             Beta orbitals :    70
        Alpha frozen cores :     0
         Beta frozen cores :     0
     Alpha frozen virtuals :     0
      Beta frozen virtuals :     0
         Spin multiplicity : singlet 
    Number of AO functions :    70
       Number of AO shells :    20
        Use of symmetry is : off
      Symmetry adaption is : off
         Schwarz screening : 0.10D-09

          Correlation Information
          -----------------------
          Calculation type : Coupled-cluster singles & doubles                           
   Perturbative correction : none                                                        
            Max iterations :      300
        Residual threshold : 0.10D-06
     T(0) DIIS level shift : 0.80D+00
     L(0) DIIS level shift : 0.00D+00
     T(1) DIIS level shift : 0.00D+00
     L(1) DIIS level shift : 0.00D+00
     T(R) DIIS level shift : 0.00D+00
     T(I) DIIS level shift : 0.00D+00
   CC-T/L Amplitude update :  5-th order DIIS
                I/O scheme : Global Array Library
        L-threshold :  0.10D-06
        EOM-threshold :  0.10D-06
 no EOMCCSD initial starts read in
 TCE RESTART OPTIONS
 READ_INT:   F
 WRITE_INT:  F
 READ_TA:    F
 WRITE_TA:   F
 READ_XA:    F
 WRITE_XA:   F
 READ_IN3:   F
 WRITE_IN3:  F
 SLICE:      F
 D4D5:       F
 quantumc:   F
 qrotation:  F
 pwtce:      F
 qducc:      T
 nacto:                         0
 nrotv:                         0
 nrot:                          0

            Memory Information
            ------------------
          Available GA space size is    1610607836 doubles
          Available MA space size is    1610610644 doubles

 Maximum block size        32 doubles

 tile_dim =     23

 Block   Spin    Irrep     Size     Offset   Alpha
 -------------------------------------------------
   1    alpha     a      1 doubles       0       1
   2    beta      a      1 doubles       1       1
   3    alpha     a     23 doubles       2       3
   4    alpha     a     23 doubles      25       4
   5    alpha     a     23 doubles      48       5
   6    beta      a     23 doubles      71       3
   7    beta      a     23 doubles      94       4
   8    beta      a     23 doubles     117       5

 Global array virtual files algorithm will be used

 Parallel file system coherency ......... OK

 Integral file          = ./H2.aoints.0
 Record size in doubles =  65536        No. of integs per rec  =  43688
 Max. records in memory =     99        Max. records in file   = 280243
 No. of bits per label  =      8        No. of bits per value  =     64


 #quartets = 2.208D+04 #integrals = 8.311D+05 #direct =  0.0% #cached =100.0%


 Fock matrix recomputed
 1-e file size   =             4900
 1-e file name   = ./H2.f1
 Cpu & wall time / sec            0.1            0.1
 4-electron integrals stored in orbital form

 v2    file size   =          6102085
 4-index algorithm nr.  13 is used
 imaxsize =       30
 imaxsize ichop =        0
 Cpu & wall time / sec            2.0            2.0
 T1-number-of-tasks                    3

 t1 file size   =               69
 t1 file name   = ./H2.t1
 t1 file handle =       -998
 T2-number-of-boxes                   15

 t2 file size   =             7935
 t2 file name   = ./H2.t2
 t2 file handle =       -996
CCSD iterations
 ---------------------------------------------------------
 Iter          Residuum       Correlation     Cpu    Wall 
 ---------------------------------------------------------
NEW TASK SCHEDULING
CCSD_T1_NTS --- OK
CCSD_T2_NTS --- OK
    1   0.5817470539586  -0.1129156892154     0.1     0.1
    2   0.3036580181986  -0.0721366463745     0.1     0.1
    3   0.1694696470419  -0.0902048373117     0.1     0.1
    4   0.1121846342539  -0.0830105041594     0.1     0.1
    5   0.0776876492158  -0.0895582580535     0.1     0.1
 MICROCYCLE DIIS UPDATE:                    5                    5
    6   0.0271743507733  -0.0898368151500     0.1     0.1
    7   0.0201527795697  -0.0916569781044     0.1     0.1
    8   0.0167118774350  -0.0927370071367     0.1     0.1
    9   0.0140026176290  -0.0937303264308     0.1     0.1
   10   0.0118182796919  -0.0944815298305     0.1     0.1
 MICROCYCLE DIIS UPDATE:                   10                    5
   11   0.0024666519454  -0.0985329483451     0.1     0.1
   12   0.0011334882766  -0.0984462645750     0.1     0.1
   13   0.0006462961526  -0.0984630199342     0.1     0.1
   14   0.0004428601792  -0.0984573158881     0.1     0.1
   15   0.0003303028473  -0.0984756967503     0.1     0.1
 MICROCYCLE DIIS UPDATE:                   15                    5
   16   0.0002229987327  -0.0984903070754     0.1     0.1
   17   0.0001644624380  -0.0985066677763     0.1     0.1
   18   0.0001361329150  -0.0985155395587     0.1     0.1
   19   0.0001126524494  -0.0985245393437     0.1     0.1
   20   0.0000948149241  -0.0985311294420     0.1     0.1
 MICROCYCLE DIIS UPDATE:                   20                    5
   21   0.0000254248411  -0.0985648410903     0.1     0.1
   22   0.0000153403710  -0.0985642189210     0.1     0.1
   23   0.0000108279556  -0.0985643903071     0.1     0.1
   24   0.0000083973505  -0.0985644041907     0.0     0.1
   25   0.0000065624132  -0.0985645914163     0.1     0.1
 MICROCYCLE DIIS UPDATE:                   25                    5
   26   0.0000028958027  -0.0985650326154     0.1     0.1
   27   0.0000018450448  -0.0985652200195     0.1     0.1
   28   0.0000014522488  -0.0985652811783     0.1     0.1
   29   0.0000011772571  -0.0985653705241     0.1     0.1
   30   0.0000009840175  -0.0985654263844     0.0     0.1
 MICROCYCLE DIIS UPDATE:                   30                    5
   31   0.0000004383648  -0.0985656881578     0.1     0.1
   32   0.0000002690815  -0.0985656893764     0.1     0.1
   33   0.0000001916096  -0.0985656997153     0.1     0.1
   34   0.0000001490664  -0.0985657061058     0.1     0.1
   35   0.0000001193609  -0.0985657138075     0.1     0.1
 MICROCYCLE DIIS UPDATE:                   35                    5
   36   0.0000000571865  -0.0985657386301     0.1     0.1
 -----------------------------------------------------------------
 Iterations converged
 CCSD correlation energy / hartree =        -0.098565738630114
 CCSD total energy / hartree       =        -1.025612420384509

 Singles contributions

 Doubles contributions
     2a   (alpha)     2a   (beta ) ---     1a   (alpha)     1a   (beta )       -0.4793125213
     3a   (alpha)     3a   (beta ) ---     1a   (alpha)     1a   (beta )       -0.0353079685
     4a   (alpha)     4a   (beta ) ---     1a   (alpha)     1a   (beta )       -0.0292719959
     5a   (alpha)     5a   (beta ) ---     1a   (alpha)     1a   (beta )       -0.0292719959
 Ground state specification:
 exp(T)|Ref>~(1+T)|Ref>
 ------- a(p)+/a(q) strings ----------

 singles norm

 doubles norm

 Reference string
  0.90176476741320999      :(1a)+ (1b)+ |0>

 Singles strings

 Doubles strings
 -0.43222714427971720      :(2a)+ (2b)+ (1b)  (1a)  (1a)+ (1b)+ |0>
 -------------------------------------
 enrep_tce =   0.27397260273972596     
  EHF(total)         =        -0.92704668
  Shift (HFtot-HFA)  =         0.00000000
 ALL OCCUPIED ORBITALS ARE ACTIVE IN DUCC --> NO SHIFT
 Number of active orbitals                   10
 Number of active alpha electrons                    1
 Number of active beta electrons                    1
  nos                     2
  nvs                   138
 noas                     1
 nobs                     1
 nvas                    69
 nvbs                    69
 nactv                     9
 DUCC MODEL =                     3
 NONHF =  T
 F-T1 correlation    =    9.3825365652313153E-006
 V-T1-T1 correlation =    1.1698463243677146E-009
 V-T2 correlation    =   -9.8575122336525503E-002
 Total correlation   =   -9.8565738630113947E-002
 F-T1(Ext) correlation         =   -6.5696389677019872E-007
 V-T1(Ext)-T1(Ext) correlation =    1.3124870532391404E-010
 V-T2(Ext) correlation         =   -1.0014339334133830E-003
 Total Ext correlation         =   -1.0020907660614478E-003
1-BODY TIME =    0.035 SECONDS.
  HHHH TIME =    0.014 SECONDS.
  PPPP TIME =    0.001 SECONDS.
  HHHP TIME =    0.034 SECONDS.
  PPPH TIME =    0.080 SECONDS.
  HPHP TIME =    0.012 SECONDS.
  HHPP TIME =    0.316 SECONDS.
 ONE-BODY UNITARY CHECK
 TWO-BODY UNITARY CHECK
 TWO-BODY ANTISYMMETRY CHECK
 TRANSFORMED ~FOCK~ MATRIX
    1    1        -0.3821237758
    1    3         0.0023430303
    1    6         0.0579137139
    1   10        -0.0094320758
    2    2         0.0150281572
    2    9         0.1344997738
    3    1         0.0023430303
    3    3         0.5692180113
    3    6         0.0515182324
    3   10        -0.4256005868
    4    4         0.5803839715
    5    5         0.5803839715
    6    1         0.0579137139
    6    3         0.0515182324
    6    6         0.8559176316
    6   10        -0.0372163580
    7    7         1.1933131074
    8    8         1.1933131074
    9    2         0.1344997738
    9    9         1.2790131335
    9   10        -0.0000000005
   10    1        -0.0094320758
   10    3        -0.4256005868
   10    6        -0.0372163580
   10    9        -0.0000000005
   10   10         1.6903465082
 begin_one_electron_integrals
    1    1        -0.8205445361
    1    3         0.0761911048
    1    6        -0.0063293388
    1   10        -0.0016085650
    2    2        -0.6996425548
    2    9         0.0032487417
    3    1         0.0761911048
    3    3        -0.1582454100
    3    6        -0.0073492140
    3   10        -0.2697000906
    4    4        -0.1549743390
    5    5        -0.1549743390
    6    1        -0.0063293388
    6    3        -0.0073492140
    6    6         0.0449263098
    6   10        -0.0152209276
    7    7         0.3636355950
    8    8         0.3636355950
    9    2         0.0032487417
    9    9         0.4423103665
    9   10        -0.0000000004
   10    1        -0.0016085650
   10    3        -0.2697000906
   10    6        -0.0152209276
   10    9        -0.0000000004
   10   10         0.9180268327
 end_one_electron_integrals
 begin_two_electron_integrals
    1    1    1    1        0.4384207603
    1    1    1    3       -0.0738480745
    1    1    1    6        0.0642430527
    1    1    1   10       -0.0078235109
    1    2    1    2        0.1864186087
    1    2    1    9        0.0452754092
    1    3    1    1       -0.0738480745
    1    3    1    3        0.0663752319
    1    3    1    6        0.0018511940
    1    3    1   10       -0.0155064695
    1    4    1    4        0.0588854744
    1    5    1    5        0.0588854744
    1    6    1    1        0.0642430527
    1    6    1    3        0.0018511940
    1    6    1    6        0.0709062642
    1    6    1   10       -0.0099428462
    1    7    1    7        0.0531426802
    1    8    1    8        0.0531426802
    1    9    1    2        0.0452754092
    1    9    1    9        0.0610417151
    1   10    1    1       -0.0078235109
    1   10    1    3       -0.0155064695
    1   10    1    6       -0.0099428462
    1   10    1   10        0.0255337161
    1    1    2    2        0.4511443478
    1    1    2    9        0.0883726185
    1    2    2    1        0.1876179836
    1    2    2    3        0.0082935209
    1    2    2    6        0.1238075979
    1    2    2   10       -0.0222256274
    1    3    2    2       -0.0579452332
    1    3    2    9       -0.0610654046
    1    4    2    7        0.0361164402
    1    4    2    8        0.0461413061
    1    5    2    7        0.0461413061
    1    5    2    8       -0.0361164402
    1    6    2    2        0.0936092486
    1    6    2    9        0.0350995089
    1    7    2    4        0.0253325670
    1    7    2    5        0.0323641455
    1    8    2    4        0.0323641455
    1    8    2    5       -0.0253325670
    1    9    2    1        0.0454942050
    1    9    2    3       -0.0356129131
    1    9    2    6        0.0438711129
    1    9    2   10       -0.0043885525
    1   10    2    2       -0.0157582395
    1   10    2    9        0.0051255084
    1    1    3    1       -0.0738480745
    1    1    3    3        0.3972930847
    1    1    3    6        0.0304688313
    1    1    3   10       -0.0857968564
    1    2    3    2        0.0082925129
    1    2    3    9       -0.1209405545
    1    3    3    1        0.0671227482
    1    3    3    3       -0.0898941383
    1    3    3    6       -0.0184932578
    1    3    3   10        0.0709852780
    1    4    3    4       -0.0132562500
    1    5    3    5       -0.0132562500
    1    6    3    1        0.0020702162
    1    6    3    3        0.0216224698
    1    6    3    6       -0.0090141897
    1    6    3   10        0.0010589031
    1    7    3    7       -0.0050006253
    1    8    3    8       -0.0050006253
    1    9    3    2       -0.0356422445
    1    9    3    9       -0.0350580460
    1   10    3    1       -0.0156932167
    1   10    3    3        0.0241586881
    1   10    3    6        0.0064232854
    1   10    3   10       -0.0238058085
    1    1    4    4        0.3974175623
    1    2    4    7        0.0797757305
    1    2    4    8        0.1019191364
    1    3    4    4       -0.0720550132
    1    4    4    1        0.0594768141
    1    4    4    3       -0.0132767803
    1    4    4    6       -0.0295265632
    1    4    4   10       -0.0197916340
    1    6    4    4        0.0146911216
    1    7    4    2        0.0253480624
    1    7    4    9        0.0007251183
    1    8    4    2        0.0323839420
    1    8    4    9        0.0009263898
    1    9    4    7        0.0168819963
    1    9    4    8        0.0215679440
    1   10    4    4       -0.0093514846
    1    1    5    5        0.3974175623
    1    2    5    7        0.1019191364
    1    2    5    8       -0.0797757305
    1    3    5    5       -0.0720550132
    1    5    5    1        0.0594768141
    1    5    5    3       -0.0132767803
    1    5    5    6       -0.0295265632
    1    5    5   10       -0.0197916340
    1    6    5    5        0.0146911216
    1    7    5    2        0.0323839420
    1    7    5    9        0.0009263898
    1    8    5    2       -0.0253480624
    1    8    5    9       -0.0007251183
    1    9    5    7        0.0215679440
    1    9    5    8       -0.0168819963
    1   10    5    5       -0.0093514846
    1    1    6    1        0.0642430527
    1    1    6    3        0.0304688313
    1    1    6    6        0.4413316080
    1    1    6   10       -0.0160597243
    1    2    6    2        0.1238142472
    1    2    6    9        0.0838295076
    1    2    6   10       -0.0000000002
    1    3    6    1        0.0020702162
    1    3    6    3       -0.0185019511
    1    3    6    6       -0.0748427377
    1    3    6   10        0.0039045532
    1    4    6    4       -0.0295365094
    1    5    6    5       -0.0295365094
    1    6    6    1        0.0716718943
    1    6    6    3       -0.0090265545
    1    6    6    6        0.0728687659
    1    6    6   10       -0.0235446402
    1    7    6    7        0.0122856382
    1    8    6    8        0.0122856382
    1    9    6    2        0.0439106249
    1    9    6    9        0.0440984703
    1   10    6    1       -0.0101240183
    1   10    6    3        0.0064209502
    1   10    6    6       -0.0175729694
    1   10    6   10       -0.0042700961
    1    1    7    7        0.4417860152
    1    2    7    4        0.0797724437
    1    2    7    5        0.1019149374
    1    3    7    7       -0.0719512389
    1    4    7    2        0.0361286489
    1    4    7    9        0.0036894250
    1    5    7    2        0.0461569036
    1    5    7    9        0.0047135012
    1    6    7    7        0.0567947852
    1    7    7    1        0.0538945180
    1    7    7    3       -0.0050165912
    1    7    7    6        0.0123021246
    1    7    7   10       -0.0161723738
    1    9    7    4        0.0168820388
    1    9    7    5        0.0215679982
    1   10    7    7       -0.0154398140
    1    1    8    8        0.4417860152
    1    2    8    4        0.1019149374
    1    2    8    5       -0.0797724437
    1    3    8    8       -0.0719512389
    1    4    8    2        0.0461569036
    1    4    8    9        0.0047135012
    1    5    8    2       -0.0361286489
    1    5    8    9       -0.0036894250
    1    6    8    8        0.0567947852
    1    8    8    1        0.0538945180
    1    8    8    3       -0.0050165912
    1    8    8    6        0.0123021246
    1    8    8   10       -0.0161723738
    1    9    8    4        0.0215679982
    1    9    8    5       -0.0168820388
    1   10    8    8       -0.0154398140
    1    1    9    2        0.0883726185
    1    1    9    9        0.4491272314
    1    2    9    1        0.0454942050
    1    2    9    3       -0.1209386171
    1    2    9    6        0.0838004970
    1    2    9   10        0.0035462142
    1    3    9    2       -0.0610927986
    1    3    9    9       -0.0885959527
    1    4    9    7        0.0036803144
    1    4    9    8        0.0047018618
    1    5    9    7        0.0047018618
    1    5    9    8       -0.0036803144
    1    6    9    2        0.0351100101
    1    6    9    9        0.0780019563
    1    7    9    4        0.0007160501
    1    7    9    5        0.0009148047
    1    8    9    4        0.0009148047
    1    8    9    5       -0.0007160501
    1    9    9    1        0.0615516958
    1    9    9    3       -0.0350758145
    1    9    9    6        0.0441000710
    1    9    9   10        0.0283141294
    1   10    9    2        0.0051632742
    1   10    9    9        0.0093546210
    1    1   10    1       -0.0078235109
    1    1   10    3       -0.0857968564
    1    1   10    6       -0.0160597243
    1    1   10   10        0.3991688311
    1    2   10    2       -0.0222262757
    1    2   10    6       -0.0000000002
    1    2   10    9        0.0035398565
    1    2   10   10       -0.0000000001
    1    3   10    1       -0.0156932167
    1    3   10    3        0.0709862867
    1    3   10    6        0.0039042643
    1    3   10   10       -0.0914496930
    1    4   10    4       -0.0197941723
    1    5   10    5       -0.0197941723
    1    6   10    1       -0.0101240183
    1    6   10    3        0.0010562791
    1    6   10    6       -0.0235497285
    1    6   10   10        0.0212998233
    1    7   10    7       -0.0161737738
    1    8   10    8       -0.0161737738
    1    9   10    2       -0.0043571444
    1    9   10    9        0.0283181848
    1   10   10    1        0.0260179866
    1   10   10    3       -0.0238093976
    1   10   10    6       -0.0042647731
    1   10   10   10        0.0238698675
    2    1    1    2        0.1876179836
    2    1    1    9        0.0454942050
    2    2    1    1        0.4511443478
    2    2    1    3       -0.0579452332
    2    2    1    6        0.0936092486
    2    2    1   10       -0.0157582395
    2    3    1    2        0.0082935209
    2    3    1    9       -0.0356129131
    2    4    1    7        0.0253325670
    2    4    1    8        0.0323641455
    2    5    1    7        0.0323641455
    2    5    1    8       -0.0253325670
    2    6    1    2        0.1238075979
    2    6    1    9        0.0438711129
    2    7    1    4        0.0361164402
    2    7    1    5        0.0461413061
    2    8    1    4        0.0461413061
    2    8    1    5       -0.0361164402
    2    9    1    1        0.0883726185
    2    9    1    3       -0.0610654046
    2    9    1    6        0.0350995089
    2    9    1   10        0.0051255084
    2   10    1    2       -0.0222256274
    2   10    1    9       -0.0043885525
    2    1    2    1        0.1864186087
    2    1    2    3        0.0082925129
    2    1    2    6        0.1238142472
    2    1    2   10       -0.0222262757
    2    2    2    2        0.4774867280
    2    2    2    9        0.0881684492
    2    3    2    1        0.0082925129
    2    3    2    3        0.0308154827
    2    3    2    6        0.0006638237
    2    3    2   10       -0.0011055852
    2    4    2    4        0.0321266554
    2    5    2    5        0.0321266554
    2    6    2    1        0.1238142472
    2    6    2    3        0.0006638237
    2    6    2    6        0.1048974107
    2    6    2   10       -0.0199424396
    2    7    2    7        0.0696378783
    2    8    2    8        0.0696378783
    2    9    2    2        0.0881684492
    2    9    2    9        0.0833899792
    2   10    2    1       -0.0222262757
    2   10    2    3       -0.0011055852
    2   10    2    6       -0.0199424396
    2   10    2   10        0.0165338031
    2    1    3    2        0.0082935209
    2    1    3    9       -0.1209386171
    2    2    3    1       -0.0579452332
    2    2    3    3        0.3870733377
    2    2    3    6        0.0228400593
    2    2    3   10       -0.0694344345
    2    3    3    2        0.0308154827
    2    3    3    9       -0.0001319318
    2    4    3    7       -0.0015912115
    2    4    3    8       -0.0020328853
    2    5    3    7       -0.0020328853
    2    5    3    8        0.0015912115
    2    6    3    2        0.0006638237
    2    6    3    9       -0.0695243360
    2    7    3    4       -0.0050678965
    2    7    3    5       -0.0064745961
    2    8    3    4       -0.0064745961
    2    8    3    5        0.0050678965
    2    9    3    1       -0.0610927986
    2    9    3    3        0.0757269709
    2    9    3    6        0.0027293616
    2    9    3   10       -0.0584426322
    2   10    3    2       -0.0011055852
    2   10    3    9       -0.0016193954
    2    1    4    7        0.0797724437
    2    1    4    8        0.1019149374
    2    2    4    4        0.3893650148
[...]
    9   10    3    2       -0.0246074853
    9   10    3    9       -0.0147514593
    9    1    4    7        0.0168820388
    9    1    4    8        0.0215679982
    9    2    4    4        0.0632552916
    9    3    4    7       -0.0534594433
    9    3    4    8       -0.0682982188
    9    4    4    2       -0.0013331125
    9    4    4    9        0.0123009159
    9    6    4    7        0.0326329429
    9    6    4    8        0.0416908920
    9    7    4    1        0.0036894250
    9    7    4    3       -0.0089187747
    9    7    4    6        0.0017944538
    9    7    4   10        0.0014513569
    9    8    4    1        0.0047135012
    9    8    4    3       -0.0113943653
    9    8    4    6        0.0022925416
    9    8    4   10        0.0018542110
    9    9    4    4        0.3924608176
    9   10    4    7        0.0054621288
    9   10    4    8        0.0069782557
    9    1    5    7        0.0215679982
    9    1    5    8       -0.0168820388
    9    2    5    5        0.0632552916
    9    3    5    7       -0.0682982188
    9    3    5    8        0.0534594433
    9    5    5    2       -0.0013331125
    9    5    5    9        0.0123009159
    9    6    5    7        0.0416908920
    9    6    5    8       -0.0326329429
    9    7    5    1        0.0047135012
    9    7    5    3       -0.0113943653
    9    7    5    6        0.0022925416
    9    7    5   10        0.0018542110
    9    8    5    1       -0.0036894250
    9    8    5    3        0.0089187747
    9    8    5    6       -0.0017944538
    9    8    5   10       -0.0014513569
    9    9    5    5        0.3924608175
    9   10    5    7        0.0069782557
    9   10    5    8       -0.0054621288
    9    1    6    2        0.0438711129
    9    1    6    9        0.0441000710
    9    2    6    1        0.0350995089
    9    2    6    3        0.0027293616
    9    2    6    6        0.0987781080
    9    2    6   10       -0.0117967497
    9    3    6    2       -0.0695243360
    9    3    6    9       -0.0543429952
    9    3    6   10        0.0000000001
    9    4    6    7        0.0026413850
    9    4    6    8        0.0033745561
    9    5    6    7        0.0033745561
    9    5    6    8       -0.0026413850
    9    6    6    2        0.0652165056
    9    6    6    9        0.0586852655
    9    7    6    4        0.0017944538
    9    7    6    5        0.0022925416
    9    8    6    4        0.0022925416
    9    8    6    5       -0.0017944538
    9    9    6    1        0.0780019563
    9    9    6    3        0.0214524503
    9    9    6    6        0.4466862153
    9    9    6   10       -0.0188316388
    9   10    6    2       -0.0015945453
    9   10    6    9        0.0078825040
    9    1    7    4        0.0168819963
    9    1    7    5        0.0215679440
    9    2    7    7        0.0830579256
    9    3    7    4       -0.0534594433
    9    3    7    5       -0.0682982188
    9    4    7    1        0.0007251183
    9    4    7    3       -0.0067558271
    9    4    7    6        0.0026413850
    9    4    7   10        0.0018157450
    9    5    7    1        0.0009263898
    9    5    7    3       -0.0086310468
    9    5    7    6        0.0033745561
    9    5    7   10        0.0023197427
    9    6    7    4        0.0326329429
    9    6    7    5        0.0416908920
    9    7    7    2        0.0086245681
    9    7    7    9        0.0197972690
    9    9    7    7        0.4429227499
    9   10    7    4        0.0054621288
    9   10    7    5        0.0069782557
    9    1    8    4        0.0215679440
    9    1    8    5       -0.0168819963
    9    2    8    8        0.0830579256
    9    3    8    4       -0.0682982188
    9    3    8    5        0.0534594433
    9    4    8    1        0.0009263898
    9    4    8    3       -0.0086310468
    9    4    8    6        0.0033745561
    9    4    8   10        0.0023197427
    9    5    8    1       -0.0007251183
    9    5    8    3        0.0067558271
    9    5    8    6       -0.0026413850
    9    5    8   10       -0.0018157450
    9    6    8    4        0.0416908920
    9    6    8    5       -0.0326329429
    9    8    8    2        0.0086245681
    9    8    8    9        0.0197972690
    9    9    8    8        0.4429227499
    9   10    8    4        0.0069782557
    9   10    8    5       -0.0054621288
    9    1    9    1        0.0610417151
    9    1    9    3       -0.0350580460
    9    1    9    6        0.0440984703
    9    1    9   10        0.0283181848
    9    2    9    2        0.0833899792
    9    2    9    9        0.1150533723
    9    3    9    1       -0.0350580460
    9    3    9    3        0.0991615066
    9    3    9    6       -0.0543429952
    9    3    9   10       -0.0147514593
    9    4    9    4        0.0123009159
    9    5    9    5        0.0123009159
    9    6    9    1        0.0440984703
    9    6    9    3       -0.0543429952
    9    6    9    6        0.0586852655
    9    6    9   10        0.0078825040
    9    7    9    7        0.0197972690
    9    8    9    8        0.0197972690
    9    9    9    2        0.1150533723
    9    9    9    9        0.4924636671
    9   10    9    1        0.0283181848
    9   10    9    3       -0.0147514593
    9   10    9    6        0.0078825040
    9   10    9   10        0.0332631183
    9    1   10    2       -0.0043885525
    9    1   10    9        0.0283141294
    9    2   10    1        0.0051255084
    9    2   10    3       -0.0584426322
    9    2   10    6       -0.0117967497
    9    2   10   10        0.0780347137
    9    3   10    2       -0.0016193954
    9    3   10    6        0.0000000001
    9    3   10    9       -0.0147514593
    9    4   10    7        0.0018157450
    9    4   10    8        0.0023197427
    9    5   10    7        0.0023197427
    9    5   10    8       -0.0018157450
    9    6   10    2       -0.0119123151
    9    6   10    9        0.0078825040
    9    7   10    4        0.0014513569
    9    7   10    5        0.0018542110
    9    8   10    4        0.0018542110
    9    8   10    5       -0.0014513569
    9    9   10    1        0.0093546210
    9    9   10    3       -0.1010023198
    9    9   10    6       -0.0188316388
    9    9   10   10        0.4175750483
    9   10   10    2        0.0046083728
    9   10   10    9        0.0332631183
   10    1    1    1       -0.0078235109
   10    1    1    3       -0.0156932167
   10    1    1    6       -0.0101240183
   10    1    1   10        0.0260179866
   10    2    1    2       -0.0222262757
   10    2    1    9       -0.0043571444
   10    3    1    1       -0.0857968564
   10    3    1    3        0.0709862867
   10    3    1    6        0.0010562791
   10    3    1   10       -0.0238093976
   10    4    1    4       -0.0197941723
   10    5    1    5       -0.0197941723
   10    6    1    1       -0.0160597243
   10    6    1    2       -0.0000000002
   10    6    1    3        0.0039042643
   10    6    1    6       -0.0235497285
   10    6    1   10       -0.0042647731
   10    7    1    7       -0.0161737738
   10    8    1    8       -0.0161737738
   10    9    1    2        0.0035398565
   10    9    1    9        0.0283181848
   10   10    1    1        0.3991688311
   10   10    1    2       -0.0000000001
   10   10    1    3       -0.0914496930
   10   10    1    6        0.0212998233
   10   10    1   10        0.0238698675
   10    1    2    2       -0.0157582395
   10    1    2    9        0.0051632742
   10    2    2    1       -0.0222256274
   10    2    2    3       -0.0011055852
   10    2    2    6       -0.0199424396
   10    2    2   10        0.0165338031
   10    3    2    2       -0.0694344345
   10    3    2    9       -0.0584426322
   10    4    2    7       -0.0116581987
   10    4    2    8       -0.0148941732
   10    5    2    7       -0.0148941732
   10    5    2    8        0.0116581987
   10    6    2    1       -0.0000000002
   10    6    2    2       -0.0243425913
   10    6    2    6       -0.0000000001
   10    6    2    9       -0.0117967497
   10    7    2    4       -0.0077259912
   10    7    2    5       -0.0098705001
   10    8    2    4       -0.0098705001
   10    8    2    5        0.0077259912
   10    9    2    1        0.0035462142
   10    9    2    3       -0.0246074853
   10    9    2    6       -0.0015945453
   10    9    2   10        0.0046083728
   10   10    2    1       -0.0000000001
   10   10    2    2        0.3882584586
   10   10    2    9        0.0780347137
   10    1    3    1       -0.0155064695
   10    1    3    3        0.0241586881
   10    1    3    6        0.0064209502
   10    1    3   10       -0.0238093976
   10    2    3    2       -0.0011055852
   10    2    3    9       -0.0016193954
   10    3    3    1        0.0709852780
   10    3    3    3       -0.1106176879
   10    3    3    6       -0.0239835387
   10    3    3   10        0.0920541375
   10    4    3    4        0.0001163336
   10    5    3    5        0.0001163336
   10    6    3    1        0.0039045532
   10    6    3    3       -0.0123248987
   10    6    3    6       -0.0017616035
   10    6    3    9        0.0000000001
   10    6    3   10        0.0097983926
   10    7    3    7       -0.0015716891
   10    8    3    8       -0.0015716891
   10    9    3    2       -0.0246074853
   10    9    3    9       -0.0147514593
   10   10    3    1       -0.0914496930
   10   10    3    3        0.4111735378
   10   10    3    6        0.0419144148
   10   10    3   10       -0.1144162843
   10    1    4    4       -0.0093514846
   10    2    4    7       -0.0102207415
   10    2    4    8       -0.0130577200
   10    3    4    4       -0.0792293749
   10    4    4    1       -0.0197916340
   10    4    4    3        0.0001163336
   10    4    4    6        0.0127742785
   10    4    4   10        0.0155522707
   10    6    4    4        0.0034428139
   10    6    4    8       -0.0000000001
   10    7    4    2       -0.0077259912
   10    7    4    9        0.0018157450
   10    8    4    2       -0.0098705001
   10    8    4    9        0.0023197427
   10    9    4    7        0.0054621288
   10    9    4    8        0.0069782557
   10   10    4    4        0.3769760024
   10    1    5    5       -0.0093514846
   10    2    5    7       -0.0130577200
   10    2    5    8        0.0102207415
   10    3    5    5       -0.0792293749
   10    5    5    1       -0.0197916340
   10    5    5    3        0.0001163336
   10    5    5    6        0.0127742785
   10    5    5   10        0.0155522707
   10    6    5    5        0.0034428139
   10    6    5    7       -0.0000000001
   10    7    5    2       -0.0098705001
   10    7    5    9        0.0023197427
   10    8    5    2        0.0077259912
   10    8    5    9       -0.0018157450
   10    9    5    7        0.0069782557
   10    9    5    8       -0.0054621288
   10   10    5    5        0.3769760024
   10    1    6    1       -0.0099428462
   10    1    6    3        0.0064232854
   10    1    6    6       -0.0175729694
   10    1    6   10       -0.0042647731
   10    2    6    2       -0.0199424396
   10    2    6    9       -0.0119123151
   10    3    6    1        0.0010589031
   10    3    6    3       -0.0239835387
   10    3    6    6       -0.0819477812
   10    3    6   10        0.0097983926
   10    4    6    4        0.0127742785
   10    5    6    5        0.0127742785
   10    6    6    1       -0.0235446402
   10    6    6    2       -0.0000000001
   10    6    6    3       -0.0017616035
   10    6    6    6       -0.0165979223
   10    6    6   10        0.0170205827
   10    7    6    7       -0.0033443343
   10    8    6    8       -0.0033443343
   10    9    6    2       -0.0015945453
   10    9    6    9        0.0078825040
   10   10    6    1        0.0212998233
   10   10    6    3        0.0419144148
   10   10    6    6        0.3915633697
   10   10    6   10       -0.0106848089
   10    1    7    7       -0.0154398140
   10    2    7    4       -0.0102207415
   10    2    7    5       -0.0130577200
   10    3    7    7       -0.0811841216
   10    4    7    2       -0.0116581987
   10    4    7    9        0.0014513569
   10    5    7    2       -0.0148941732
   10    5    7    9        0.0018542110
   10    6    7    5       -0.0000000001
   10    6    7    7       -0.0111649284
   10    7    7    1       -0.0161723738
   10    7    7    3       -0.0015716891
   10    7    7    6       -0.0033443343
   10    7    7   10        0.0101828849
   10    9    7    4        0.0054621288
   10    9    7    5        0.0069782557
   10   10    7    7        0.3933550875
   10    1    8    8       -0.0154398140
   10    2    8    4       -0.0130577200
   10    2    8    5        0.0102207415
   10    3    8    8       -0.0811841216
   10    4    8    2       -0.0148941732
   10    4    8    9        0.0018542110
   10    5    8    2        0.0116581987
   10    5    8    9       -0.0014513569
   10    6    8    4       -0.0000000001
   10    6    8    8       -0.0111649284
   10    8    8    1       -0.0161723738
   10    8    8    3       -0.0015716891
   10    8    8    6       -0.0033443343
   10    8    8   10        0.0101828849
   10    9    8    4        0.0069782557
   10    9    8    5       -0.0054621288
   10   10    8    8        0.3933550875
   10    1    9    2        0.0051255084
   10    1    9    9        0.0093546210
   10    2    9    1       -0.0043885525
   10    2    9    3       -0.0016193954
   10    2    9    6       -0.0119123151
   10    2    9   10        0.0046083728
   10    3    9    2       -0.0584426322
   10    3    9    9       -0.1010023198
   10    4    9    7        0.0014513569
   10    4    9    8        0.0018542110
   10    5    9    7        0.0018542110
   10    5    9    8       -0.0014513569
   10    6    9    2       -0.0117967497
   10    6    9    3        0.0000000001
   10    6    9    9       -0.0188316388
   10    7    9    4        0.0018157450
   10    7    9    5        0.0023197427
   10    8    9    4        0.0023197427
   10    8    9    5       -0.0018157450
   10    9    9    1        0.0283141294
   10    9    9    3       -0.0147514593
   10    9    9    6        0.0078825040
   10    9    9   10        0.0332631183
   10   10    9    2        0.0780347137
   10   10    9    9        0.4175750483
   10    1   10    1        0.0255337161
   10    1   10    3       -0.0238058085
   10    1   10    6       -0.0042700961
   10    1   10   10        0.0238698675
   10    2   10    2        0.0165338031
   10    2   10    9        0.0046083728
   10    3   10    1       -0.0238058085
   10    3   10    3        0.0920541375
   10    3   10    6        0.0097983926
   10    3   10   10       -0.1144162843
   10    4   10    4        0.0155522707
   10    5   10    5        0.0155522707
   10    6   10    1       -0.0042700961
   10    6   10    3        0.0097983926
   10    6   10    6        0.0170205827
   10    6   10   10       -0.0106848089
   10    7   10    7        0.0101828849
   10    8   10    8        0.0101828849
   10    9   10    2        0.0046083728
   10    9   10    9        0.0332631183
   10   10   10    1        0.0238698675
   10   10   10    3       -0.1144162843
   10   10   10    6       -0.0106848089
   10   10   10   10        0.4215384613
 end_two_electron_integrals

 Parallel integral file used      20 records with       0 large values


 Task  times  cpu:       34.7s     wall:       37.0s


                                NWChem Input Module
                                -------------------


 Summary of allocated global arrays
-----------------------------------
  No active global arrays


MA_summarize_allocated_blocks: starting scan ...
MA_summarize_allocated_blocks: scan completed: 0 heap blocks, 0 stack blocks
MA usage statistics:

	allocation statistics:
					      heap	     stack
					      ----	     -----
	current number of blocks	         0	         0
	maximum number of blocks	        18	        42
	current total bytes		         0	         0
	maximum total bytes		  51983048	9994007128
	maximum total K-bytes		     51984	   9994008
	maximum total M-bytes		        52	      9995


                                     CITATION
                                     --------
                Please cite the following reference when publishing
                           results obtained with NWChem:

          E. Apra, E. J. Bylaska, W. A. de Jong, N. Govind, K. Kowalski,
       T. P. Straatsma, M. Valiev, H. J. J. van Dam, Y. Alexeev, J. Anchell,
       V. Anisimov, F. W. Aquino, R. Atta-Fynn, J. Autschbach, N. P. Bauman,
     J. C. Becca, D. E. Bernholdt, K. Bhaskaran-Nair, S. Bogatko, P. Borowski,
         J. Boschen, J. Brabec, A. Bruner, E. Cauet, Y. Chen, G. N. Chuev,
      C. J. Cramer, J. Daily, M. J. O. Deegan, T. H. Dunning Jr., M. Dupuis,
   K. G. Dyall, G. I. Fann, S. A. Fischer, A. Fonari, H. Fruchtl, L. Gagliardi,
      J. Garza, N. Gawande, S. Ghosh, K. Glaesemann, A. W. Gotz, J. Hammond,
       V. Helms, E. D. Hermes, K. Hirao, S. Hirata, M. Jacquelin, L. Jensen,
   B. G. Johnson, H. Jonsson, R. A. Kendall, M. Klemm, R. Kobayashi, V. Konkov,
      S. Krishnamoorthy, M. Krishnan, Z. Lin, R. D. Lins, R. J. Littlefield,
      A. J. Logsdail, K. Lopata, W. Ma, A. V. Marenich, J. Martin del Campo,
   D. Mejia-Rodriguez, J. E. Moore, J. M. Mullin, T. Nakajima, D. R. Nascimento,
    J. A. Nichols, P. J. Nichols, J. Nieplocha, A. Otero-de-la-Roza, B. Palmer,
    A. Panyala, T. Pirojsirikul, B. Peng, R. Peverati, J. Pittner, L. Pollack,
   R. M. Richard, P. Sadayappan, G. C. Schatz, W. A. Shelton, D. W. Silverstein,
   D. M. A. Smith, T. A. Soares, D. Song, M. Swart, H. L. Taylor, G. S. Thomas,
            V. Tipparaju, D. G. Truhlar, K. Tsemekhman, T. Van Voorhis,
      A. Vazquez-Mayagoitia, P. Verma, O. Villa, A. Vishnu, K. D. Vogiatzis,
        D. Wang, J. H. Weare, M. J. Williamson, T. L. Windus, K. Wolinski,
        A. T. Wong, Q. Wu, C. Yang, Q. Yu, M. Zacharias, Z. Zhang, Y. Zhao,
                                and R. J. Harrison
                        "NWChem: Past, present, and future
                         J. Chem. Phys. 152, 184102 (2020)
                               doi:10.1063/5.0004997

                                      AUTHORS
                                      -------
  E. Apra, E. J. Bylaska, N. Govind, K. Kowalski, M. Valiev, D. Mejia-Rodriguez,
       A. Kunitsa, N. P. Bauman, A. Panyala, W. A. de Jong, T. P. Straatsma,
        H. J. J. van Dam, D. Wang, T. L. Windus, J. Hammond, J. Autschbach,
    K. Bhaskaran-Nair, J. Brabec, K. Lopata, S. A. Fischer, S. Krishnamoorthy,
     M. Jacquelin, W. Ma, M. Klemm, O. Villa, Y. Chen, V. Anisimov, F. Aquino,
    S. Hirata, M. T. Hackler, Eric Hermes, L. Jensen, J. E. Moore, J. C. Becca,
      V. Konjkov, T. Risthaus, M. Malagoli, A. Marenich, A. Otero-de-la-Roza,
        J. Mullin, P. Nichols, R. Peverati, J. Pittner, Y. Zhao, P.-D. Fan,
        A. Fonari, M. J. Williamson, R. J. Harrison, J. R. Rehr, M. Dupuis,
     D. Silverstein, D. M. A. Smith, J. Nieplocha, V. Tipparaju, M. Krishnan,
     B. E. Van Kuiken, A. Vazquez-Mayagoitia, M. Swart, Q. Wu, T. Van Voorhis,
     A. A. Auer, M. Nooijen, L. D. Crosby, E. Brown, G. Cisneros, G. I. Fann,
   H. Fruchtl, J. Garza, K. Hirao, R. A. Kendall, J. A. Nichols, K. Tsemekhman,
    K. Wolinski, J. Anchell, D. E. Bernholdt, P. Borowski, T. Clark, D. Clerc,
   H. Dachsel, M. J. O. Deegan, K. Dyall, D. Elwood, E. Glendening, M. Gutowski,
   A. C. Hess, J. Jaffe, B. G. Johnson, J. Ju, R. Kobayashi, R. Kutteh, Z. Lin,
   R. Littlefield, X. Long, B. Meng, T. Nakajima, S. Niu, L. Pollack, M. Rosing,
   K. Glaesemann, G. Sandrone, M. Stave, H. Taylor, G. Thomas, J. H. van Lenthe,
                               A. T. Wong, Z. Zhang.

 Total times  cpu:       37.0s     wall:       40.5s
