 argument  1 = input.nw
  NWChem w/ OpenMP: maximum threads =    1



============================== echo of input deck ==============================
 echo
 start H2
 title "H2"

 memory total 24 gb

 geometry units bohr
 symmetry c1
        H  0.00000000  0.00000000  0.00000000
        H  0.00000000  4.35  0.00000000
 end

 basis
   * library cc-pVQZ
 end

 mcscf
   active  10
   actelec 2
   multiplicity 1
   maxiter 40
   vectors input H2.mos
   vectors output H2.mos
 end

 task mcscf

 scf
   vectors input H2.mos
   vectors output H2-4.35.mos
   noscf
 end

 tce
   2eorb
   2emet 13
   ccsd
   maxiter 300
   lshift 0.8
 end

# set tce:print_integrals T
# set tce:qorb 10
# set tce:qela 1
# set tce:qelb 1

 set tce:qducc T
 set tce:nactv 9
 set tce:nonhf T
 set tce:ducc_model 3

 set tce:printtol 0.02

 task tce
================================================================================


                                         
                                         


             Northwest Computational Chemistry Package (NWChem) 7.0.1
             --------------------------------------------------------


                    Environmental Molecular Sciences Laboratory
                       Pacific Northwest National Laboratory
                                Richland, WA 99352

                              Copyright (c) 1994-2020
                       Pacific Northwest National Laboratory
                            Battelle Memorial Institute

             NWChem is an open-source computational chemistry package
                        distributed under the terms of the
                      Educational Community License (ECL) 2.0
             A copy of the license is included with this distribution
                              in the LICENSE.TXT file

                                  ACKNOWLEDGMENT
                                  --------------

            This software and its documentation were developed at the
            EMSL at Pacific Northwest National Laboratory, a multiprogram
            national laboratory, operated for the U.S. Department of Energy
            by Battelle under Contract Number DE-AC05-76RL01830. Support
            for this work was provided by the Department of Energy Office
            of Biological and Environmental Research, Office of Basic
            Energy Sciences, and the Office of Advanced Scientific Computing.


           Job information
           ---------------

    hostname        = WE46210
    program         = /home/baum612/code/nwchem/bin/LINUX64/nwchem
    date            = Fri Nov 10 22:30:58 2023

    compiled        = Mon_Nov_06_10:06:57_2023
    source          = /home/baum612/code/nwchem
    nwchem branch   = 7.0.0
    nwchem revision = nwchem_on_git-4191-g39d87d64de
    ga revision     = 5.8.1
    use scalapack   = F
    input           = input.nw
    prefix          = H2.
    data base       = ./H2.db
    status          = startup
    nproc           =        1
    time left       =     -1s



           Memory information
           ------------------

    heap     =  805306362 doubles =   6144.0 Mbytes
    stack    =  805306367 doubles =   6144.0 Mbytes
    global   = 1610612736 doubles =  12288.0 Mbytes (distinct from heap & stack)
    total    = 3221225465 doubles =  24576.0 Mbytes
    verify   = yes
    hardfail = no 


           Directory information
           ---------------------

  0 permanent = .
  0 scratch   = .




                                NWChem Input Module
                                -------------------


                                        H2
                                        --
 Turning off AUTOSYM since
 SYMMETRY directive was detected!


          ------
          auto-z
          ------
     1 autoz failed with cvr_scaling = 1.2 changing to 1.3
     2 autoz failed with cvr_scaling = 1.3 changing to 1.4
     3 autoz failed with cvr_scaling = 1.4 changing to 1.5
     4 autoz failed with cvr_scaling = 1.5 changing to 1.6
     5 autoz failed with cvr_scaling = 1.6 changing to 1.7

 AUTOZ failed to generate good internal coordinates.
 Cartesian coordinates will be used in optimizations.



                             Geometry "geometry" -> ""
                             -------------------------

 Output coordinates in a.u. (scale by  1.000000000 to convert to a.u.)

  No.       Tag          Charge          X              Y              Z
 ---- ---------------- ---------- -------------- -------------- --------------
    1 H                    1.0000     0.00000000    -2.17500000     0.00000000
    2 H                    1.0000     0.00000000     2.17500000     0.00000000

      Atomic Mass 
      ----------- 

      H                  1.007825


 Effective nuclear repulsion energy (a.u.)       0.2298850575

            Nuclear Dipole moment (a.u.) 
            ----------------------------
        X                 Y               Z
 ---------------- ---------------- ----------------
     0.0000000000     0.0000000000     0.0000000000


            XYZ format geometry
            -------------------
     2
 geometry
 H                     0.00000000    -1.15096052     0.00000000
 H                     0.00000000     1.15096052     0.00000000



 Summary of "ao basis" -> "" (cartesian)
 ------------------------------------------------------------------------------
       Tag                 Description            Shells   Functions and Types
 ---------------- ------------------------------  ------  ---------------------
 *                          cc-pVQZ                   on all atoms 


                      Basis "ao basis" -> "ao basis" (cartesian)
                      -----
  H (Hydrogen)
  ------------
            Exponent  Coefficients 
       -------------- ---------------------------------------------------------
  1 S  8.26400000E+01  0.002006
  1 S  1.24100000E+01  0.015343
  1 S  2.82400000E+00  0.075579

  2 S  7.97700000E-01  1.000000

  3 S  2.58100000E-01  1.000000

  4 S  8.98900000E-02  1.000000

  5 P  2.29200000E+00  1.000000

  6 P  8.38000000E-01  1.000000

  7 P  2.92000000E-01  1.000000

  8 D  2.06200000E+00  1.000000

  9 D  6.62000000E-01  1.000000

 10 F  1.39700000E+00  1.000000



 Summary of "ao basis" -> "ao basis" (cartesian)
 ------------------------------------------------------------------------------
       Tag                 Description            Shells   Functions and Types
 ---------------- ------------------------------  ------  ---------------------
 H                          cc-pVQZ                 10       35   4s3p2d1f



                            NWChem Direct MCSCF Module
                            --------------------------


                                        H2


     -----------------------------------
       Basis functions:             70
       Inactive shells:              0
       Active shells:               10
       Active electrons:             2
       Symmetry:                    a       
       Multiplicity:                 1
       Orbital rotations:          600
     -----------------------------------

     -----------------------------------
       E2 extrapolation:             F
       Conjugacy:                    T
       Micro CI relax:               T
       Canonical orbitals:           T
       Maximum iterations:          40
       Converge threshold:    1.00E-04
       Conjugacy resets:            20
       Initial levelshift:        0.10
     -----------------------------------

 Loading old vectors from job with title :

H2


   input molecular orbitals = ./H2.mos
  output molecular orbtials = ./H2.mos

       No. of determinants:           100


  Starting Orbital Energies
    -0.341229    -0.157837    -0.000617    -0.000330    -0.000330    -0.000032
    -0.000016    -0.000016    -0.000014    -0.000007     0.465915     0.805519
     0.907157     1.351625     1.351625     1.696966     1.798739     1.798739
     1.949697     1.949697     2.011446     2.078483     2.078483     2.098424
     2.098424     2.207068     2.207068     2.655734     2.949119     3.008826
     4.392350     4.424170     4.424170     4.434503     4.434503     4.637844
     5.917251     6.059154     6.059154     6.065566     6.065566     6.066145
     6.066145     6.066244     6.066244     6.067690     6.067690     6.072788
     6.072788     6.126703     8.018629     8.083418     8.083418     8.129052
     8.129052     8.142209     8.142209     8.210414     8.210414     8.535077
     9.647329     9.672882     9.673904     9.704363     9.704363     9.729383
     9.729383     9.887324    22.291521    22.884673

  Orbital Symmetry Irreps
a    a    a    a    a    a    a    a    a    a    a    a    a    a    a   
a    a    a    a    a    a    a    a    a    a    a    a    a    a    a   
a    a    a    a    a    a    a    a    a    a    a    a    a    a    a   
a    a    a    a    a    a    a    a    a    a    a    a    a    a    a   
a    a    a    a    a    a    a    a    a    a   

 Integral file          = ./H2.aoints.0
 Record size in doubles =  65536        No. of integs per rec  =  43688
 Max. records in memory =     99        Max. records in file   = 280188
 No. of bits per label  =      8        No. of bits per value  =     64


 #quartets = 2.137D+04 #integrals = 7.014D+05 #direct =  0.0% #cached =100.0%




          %%%%% MacroIteration   1 %%%%%


          Number of sigma calls:       15
                       o<<<<< (aa):             0.00
                       o<<<<< (bb):             0.00
                       o<<<<< (ab):             0.02
                       o<<<<< (total)           0.02
                       o<<<<< (aa) ff           0.00
                       o<<<<< (aa) gop          0.00
                       o<<<<< (aa) dot          0.00
                       o<<<<< (ab) str          0.00
                       o<<<<< (ab) gath         0.00
                       o<<<<< (ab) dotab        0.00
                       o<<<<< (ab) scat         0.00
                       o<<<<< (ab) sync         0.00
                       o<<<<< Density           0.00
                       o<<<<< Density one       0.00
                       o<<<<< Density two       0.00
                       o<<<<< Density ab        0.00
                       o<<<<< Spin adapt        0.00
                       o<<<<< Symm adapt        0.00

                       o<<<<< (ab) max sync:      0.00

           >>>| Valence CI:             -1.239223671799
           >>>| MCSCF energy:           -1.009338614328
           >>>| Gradient norm:          0.161961883D-02
     --- Warning:  478 Hessian diagonals < 0.05 ---

                              ----- Line search ------

        step       energy         lsg     num-lsg   num-lsh   lsrat    time
      ------- ---------------- --------- --------- --------- ------- --------
       0.0000      -1.00933861 -5.30D-07  0.00D+00  0.00D+00 0.0D+00      0.4

          Number of sigma calls:       11
                       o<<<<< (aa):             0.00
                       o<<<<< (bb):             0.00
                       o<<<<< (ab):             0.01
                       o<<<<< (total)           0.01
                       o<<<<< (aa) ff           0.00
                       o<<<<< (aa) gop          0.00
                       o<<<<< (aa) dot          0.00
                       o<<<<< (ab) str          0.00
                       o<<<<< (ab) gath         0.00
                       o<<<<< (ab) dotab        0.00
                       o<<<<< (ab) scat         0.00
                       o<<<<< (ab) sync         0.00
                       o<<<<< Density           0.00
                       o<<<<< Density one       0.00
                       o<<<<< Density two       0.00
                       o<<<<< Density ab        0.00
                       o<<<<< Spin adapt        0.00
                       o<<<<< Symm adapt        0.00

                       o<<<<< (ab) max sync:      0.00
       1.0000      -1.00933896 -1.55D-07 -1.55D-07  3.75D-07 2.9D-01      0.6

          Number of sigma calls:       10
                       o<<<<< (aa):             0.00
                       o<<<<< (bb):             0.00
                       o<<<<< (ab):             0.01
                       o<<<<< (total)           0.01
                       o<<<<< (aa) ff           0.00
                       o<<<<< (aa) gop          0.00
                       o<<<<< (aa) dot          0.00
                       o<<<<< (ab) str          0.00
                       o<<<<< (ab) gath         0.00
                       o<<<<< (ab) dotab        0.00
                       o<<<<< (ab) scat         0.00
                       o<<<<< (ab) sync         0.00
                       o<<<<< Density           0.00
                       o<<<<< Density one       0.00
                       o<<<<< Density two       0.00
                       o<<<<< Density ab        0.00
                       o<<<<< Spin adapt        0.00
                       o<<<<< Symm adapt        0.00

                       o<<<<< (ab) max sync:      0.00
       1.4145      -1.00933899  5.90D-11  5.63D-11  3.75D-07 1.1D-04      0.8
     --- Orbitals canonicalized ---



          %%%%% MacroIteration   2 %%%%%


          Number of sigma calls:       15
                       o<<<<< (aa):             0.00
                       o<<<<< (bb):             0.00
                       o<<<<< (ab):             0.02
                       o<<<<< (total)           0.02
                       o<<<<< (aa) ff           0.00
                       o<<<<< (aa) gop          0.00
                       o<<<<< (aa) dot          0.00
                       o<<<<< (ab) str          0.00
                       o<<<<< (ab) gath         0.00
                       o<<<<< (ab) dotab        0.00
                       o<<<<< (ab) scat         0.00
                       o<<<<< (ab) sync         0.00
                       o<<<<< Density           0.00
                       o<<<<< Density one       0.00
                       o<<<<< Density two       0.00
                       o<<<<< Density ab        0.00
                       o<<<<< Spin adapt        0.00
                       o<<<<< Symm adapt        0.00

                       o<<<<< (ab) max sync:      0.00

           >>>| Valence CI:             -1.239224046973
           >>>| MCSCF energy:           -1.009338989502
           >>>| Gradient norm:          0.369415422D-03
     --- Warning:  478 Hessian diagonals < 0.05 ---
     --- Conjugacy reset ---

                              ----- Line search ------

        step       energy         lsg     num-lsg   num-lsh   lsrat    time
      ------- ---------------- --------- --------- --------- ------- --------
       0.0000      -1.00933899 -7.64D-08  0.00D+00  0.00D+00 0.0D+00      1.1

          Number of sigma calls:        9
                       o<<<<< (aa):             0.00
                       o<<<<< (bb):             0.00
                       o<<<<< (ab):             0.01
                       o<<<<< (total)           0.01
                       o<<<<< (aa) ff           0.00
                       o<<<<< (aa) gop          0.00
                       o<<<<< (aa) dot          0.00
                       o<<<<< (ab) str          0.00
                       o<<<<< (ab) gath         0.00
                       o<<<<< (ab) dotab        0.00
                       o<<<<< (ab) scat         0.00
                       o<<<<< (ab) sync         0.00
                       o<<<<< Density           0.00
                       o<<<<< Density one       0.00
                       o<<<<< Density two       0.00
                       o<<<<< Density ab        0.00
                       o<<<<< Spin adapt        0.00
                       o<<<<< Symm adapt        0.00

                       o<<<<< (ab) max sync:      0.00
       1.0000      -1.00933904 -2.12D-08 -2.12D-08  5.52D-08 2.8D-01      1.3

          Number of sigma calls:        9
                       o<<<<< (aa):             0.00
                       o<<<<< (bb):             0.00
                       o<<<<< (ab):             0.01
                       o<<<<< (total)           0.01
                       o<<<<< (aa) ff           0.00
                       o<<<<< (aa) gop          0.00
                       o<<<<< (aa) dot          0.00
                       o<<<<< (ab) str          0.00
                       o<<<<< (ab) gath         0.00
                       o<<<<< (ab) dotab        0.00
                       o<<<<< (ab) scat         0.00
                       o<<<<< (ab) sync         0.00
                       o<<<<< Density           0.00
                       o<<<<< Density one       0.00
                       o<<<<< Density two       0.00
                       o<<<<< Density ab        0.00
                       o<<<<< Spin adapt        0.00
                       o<<<<< Symm adapt        0.00

                       o<<<<< (ab) max sync:      0.00
       1.3833      -1.00933904  3.01D-12  2.94D-12  5.52D-08 3.9D-05      1.5



          %%%%% MacroIteration   3 %%%%%


          Number of sigma calls:        1
                       o<<<<< (aa):             0.00
                       o<<<<< (bb):             0.00
                       o<<<<< (ab):             0.00
                       o<<<<< (total)           0.00
                       o<<<<< (aa) ff           0.00
                       o<<<<< (aa) gop          0.00
                       o<<<<< (aa) dot          0.00
                       o<<<<< (ab) str          0.00
                       o<<<<< (ab) gath         0.00
                       o<<<<< (ab) dotab        0.00
                       o<<<<< (ab) scat         0.00
                       o<<<<< (ab) sync         0.00
                       o<<<<< Density           0.00
                       o<<<<< Density one       0.00
                       o<<<<< Density two       0.00
                       o<<<<< Density ab        0.00
                       o<<<<< Spin adapt        0.00
                       o<<<<< Symm adapt        0.00

                       o<<<<< (ab) max sync:      0.00

           >>>| Valence CI:             -1.239224099791
           >>>| MCSCF energy:           -1.009339042320
           >>>| Gradient norm:          0.132256417D-03
     --- Warning:  478 Hessian diagonals < 0.05 ---

                              ----- Line search ------

        step       energy         lsg     num-lsg   num-lsh   lsrat    time
      ------- ---------------- --------- --------- --------- ------- --------
       0.0000      -1.00933904 -4.69D-09  0.00D+00  0.00D+00 0.0D+00      1.7

          Number of sigma calls:        8
                       o<<<<< (aa):             0.00
                       o<<<<< (bb):             0.00
                       o<<<<< (ab):             0.01
                       o<<<<< (total)           0.01
                       o<<<<< (aa) ff           0.00
                       o<<<<< (aa) gop          0.00
                       o<<<<< (aa) dot          0.00
                       o<<<<< (ab) str          0.00
                       o<<<<< (ab) gath         0.00
                       o<<<<< (ab) dotab        0.00
                       o<<<<< (ab) scat         0.00
                       o<<<<< (ab) sync         0.00
                       o<<<<< Density           0.00
                       o<<<<< Density one       0.00
                       o<<<<< Density two       0.00
                       o<<<<< Density ab        0.00
                       o<<<<< Spin adapt        0.00
                       o<<<<< Symm adapt        0.00

                       o<<<<< (ab) max sync:      0.00
       1.0000      -1.00933905 -2.16D-09 -2.16D-09  2.53D-09 4.6D-01      1.9

          Number of sigma calls:        7
                       o<<<<< (aa):             0.00
                       o<<<<< (bb):             0.00
                       o<<<<< (ab):             0.01
                       o<<<<< (total)           0.01
                       o<<<<< (aa) ff           0.00
                       o<<<<< (aa) gop          0.00
                       o<<<<< (aa) dot          0.00
                       o<<<<< (ab) str          0.00
                       o<<<<< (ab) gath         0.00
                       o<<<<< (ab) dotab        0.00
                       o<<<<< (ab) scat         0.00
                       o<<<<< (ab) sync         0.00
                       o<<<<< Density           0.00
                       o<<<<< Density one       0.00
                       o<<<<< Density two       0.00
                       o<<<<< Density ab        0.00
                       o<<<<< Spin adapt        0.00
                       o<<<<< Symm adapt        0.00

                       o<<<<< (ab) max sync:      0.00
       1.8570      -1.00933905  2.63D-13  2.51D-13  2.53D-09 5.6D-05      2.1



          %%%%% MacroIteration   4 %%%%%


          Number of sigma calls:        1
                       o<<<<< (aa):             0.00
                       o<<<<< (bb):             0.00
                       o<<<<< (ab):             0.00
                       o<<<<< (total)           0.00
                       o<<<<< (aa) ff           0.00
                       o<<<<< (aa) gop          0.00
                       o<<<<< (aa) dot          0.00
                       o<<<<< (ab) str          0.00
                       o<<<<< (ab) gath         0.00
                       o<<<<< (ab) dotab        0.00
                       o<<<<< (ab) scat         0.00
                       o<<<<< (ab) sync         0.00
                       o<<<<< Density           0.00
                       o<<<<< Density one       0.00
                       o<<<<< Density two       0.00
                       o<<<<< Density ab        0.00
                       o<<<<< Spin adapt        0.00
                       o<<<<< Symm adapt        0.00

                       o<<<<< (ab) max sync:      0.00

           >>>| Valence CI:             -1.239224104146
           >>>| MCSCF energy:           -1.009339046675
           >>>| Gradient norm:          0.114798925D-03
     --- Warning:  478 Hessian diagonals < 0.05 ---

                              ----- Line search ------

        step       energy         lsg     num-lsg   num-lsh   lsrat    time
      ------- ---------------- --------- --------- --------- ------- --------
       0.0000      -1.00933905 -1.78D-09  0.00D+00  0.00D+00 0.0D+00      2.2

          Number of sigma calls:        8
                       o<<<<< (aa):             0.00
                       o<<<<< (bb):             0.00
                       o<<<<< (ab):             0.01
                       o<<<<< (total)           0.01
                       o<<<<< (aa) ff           0.00
                       o<<<<< (aa) gop          0.00
                       o<<<<< (aa) dot          0.00
                       o<<<<< (ab) str          0.00
                       o<<<<< (ab) gath         0.00
                       o<<<<< (ab) dotab        0.00
                       o<<<<< (ab) scat         0.00
                       o<<<<< (ab) sync         0.00
                       o<<<<< Density           0.00
                       o<<<<< Density one       0.00
                       o<<<<< Density two       0.00
                       o<<<<< Density ab        0.00
                       o<<<<< Spin adapt        0.00
                       o<<<<< Symm adapt        0.00

                       o<<<<< (ab) max sync:      0.00
       1.0000      -1.00933905 -1.20D-09 -1.20D-09  5.81D-10 6.7D-01      2.4

          Number of sigma calls:        8
                       o<<<<< (aa):             0.00
                       o<<<<< (bb):             0.00
                       o<<<<< (ab):             0.01
                       o<<<<< (total)           0.01
                       o<<<<< (aa) ff           0.00
                       o<<<<< (aa) gop          0.00
                       o<<<<< (aa) dot          0.00
                       o<<<<< (ab) str          0.00
                       o<<<<< (ab) gath         0.00
                       o<<<<< (ab) dotab        0.00
                       o<<<<< (ab) scat         0.00
                       o<<<<< (ab) sync         0.00
                       o<<<<< Density           0.00
                       o<<<<< Density one       0.00
                       o<<<<< Density two       0.00
                       o<<<<< Density ab        0.00
                       o<<<<< Spin adapt        0.00
                       o<<<<< Symm adapt        0.00

                       o<<<<< (ab) max sync:      0.00
       3.0615      -1.00933905  5.73D-13  5.00D-13  5.81D-10 3.2D-04      2.6



          %%%%% MacroIteration   5 %%%%%


          Number of sigma calls:        1
                       o<<<<< (aa):             0.00
                       o<<<<< (bb):             0.00
                       o<<<<< (ab):             0.00
                       o<<<<< (total)           0.00
                       o<<<<< (aa) ff           0.00
                       o<<<<< (aa) gop          0.00
                       o<<<<< (aa) dot          0.00
                       o<<<<< (ab) str          0.00
                       o<<<<< (ab) gath         0.00
                       o<<<<< (ab) dotab        0.00
                       o<<<<< (ab) scat         0.00
                       o<<<<< (ab) sync         0.00
                       o<<<<< Density           0.00
                       o<<<<< Density one       0.00
                       o<<<<< Density two       0.00
                       o<<<<< Density ab        0.00
                       o<<<<< Spin adapt        0.00
                       o<<<<< Symm adapt        0.00

                       o<<<<< (ab) max sync:      0.00

           >>>| Valence CI:             -1.239224106867
           >>>| MCSCF energy:           -1.009339049396
           >>>| Gradient norm:          0.383678831D-04




     ==============================
            MCSCF Converged
     ==============================



          Canonical Eigenvalues

              1      
    1   -0.3381
    2   -0.1609
    3   -0.0006
    4   -0.0003
    5   -0.0003
    6   -0.0000
    7   -0.0000
    8   -0.0000
    9   -0.0000
   10   -0.0000
   11    0.4612
   12    0.8067
   13    0.8776
   14    1.3282
   15    1.3282
   16    1.6934
   17    1.7988
   18    1.7988
   19    1.9566
   20    1.9566
   21    1.9997
   22    2.0796
   23    2.0796
   24    2.0974
   25    2.0974
   26    2.1966
   27    2.1966
   28    2.6332
   29    2.9459
   30    2.9977
   31    4.4125
   32    4.4207
   33    4.4207
   34    4.4354
   35    4.4354
   36    4.6207
   37    5.9199
   38    6.0608
   39    6.0608
   40    6.0659
   41    6.0659
   42    6.0663
   43    6.0663
   44    6.0664
   45    6.0664
   46    6.0676
   47    6.0676
   48    6.0697
   49    6.0697
   50    6.1182
   51    8.0212
   52    8.0879
   53    8.0879
   54    8.1301
   55    8.1301
   56    8.1417
   57    8.1417
   58    8.2034
   59    8.2034
   60    8.5101
   61    9.6546
   62    9.6713
   63    9.6728
   64    9.7058
   65    9.7058
   66    9.7279
   67    9.7279
   68    9.8753
   69   22.3258
   70   22.8534


          Converged CI vector

   Index           Coefficient          Config. Occupation
         1         -0.84031948          1  1
        12          0.54101962          2  2
        23          0.02342867          3  3

          Number of sigma calls:        1
                       o<<<<< (aa):             0.00
                       o<<<<< (bb):             0.00
                       o<<<<< (ab):             0.00
                       o<<<<< (total)           0.00
                       o<<<<< (aa) ff           0.00
                       o<<<<< (aa) gop          0.00
                       o<<<<< (aa) dot          0.00
                       o<<<<< (ab) str          0.00
                       o<<<<< (ab) gath         0.00
                       o<<<<< (ab) dotab        0.00
                       o<<<<< (ab) scat         0.00
                       o<<<<< (ab) sync         0.00
                       o<<<<< Density           0.00
                       o<<<<< Density one       0.00
                       o<<<<< Density two       0.00
                       o<<<<< Density ab        0.00
                       o<<<<< Spin adapt        0.00
                       o<<<<< Symm adapt        0.00

                       o<<<<< (ab) max sync:      0.00



          Natural orbital occupation numbers

              1      
    1    1.4123
    2    0.5854
    3    0.0011
    4    0.0005
    5    0.0005
    6    0.0000
    7    0.0000
    8    0.0000
    9    0.0000
   10    0.0000


          Number of sigma calls:       15
                       o<<<<< (aa):             0.00
                       o<<<<< (bb):             0.00
                       o<<<<< (ab):             0.02
                       o<<<<< (total)           0.02
                       o<<<<< (aa) ff           0.00
                       o<<<<< (aa) gop          0.00
                       o<<<<< (aa) dot          0.00
                       o<<<<< (ab) str          0.00
                       o<<<<< (ab) gath         0.00
                       o<<<<< (ab) dotab        0.00
                       o<<<<< (ab) scat         0.00
                       o<<<<< (ab) sync         0.00
                       o<<<<< Density           0.00
                       o<<<<< Density one       0.00
                       o<<<<< Density two       0.00
                       o<<<<< Density ab        0.00
                       o<<<<< Spin adapt        0.00
                       o<<<<< Symm adapt        0.00

                       o<<<<< (ab) max sync:      0.00


       Final MCSCF results 
       ------------------- 

       Total MCSCF energy =     -1.009339049395
            Gradient norm =      3.8D-05

    CPU time for solution =      3.0s
   Wall time for solution =      3.1s



                        Analysis of MCSCF natural orbitals
                        ----------------------------------

 Vector    1  Occ=1.412310D+00  E=-3.381365D-01  Symmetry=a
              MO Center=  3.2D-15,  1.6D-12, -2.1D-15, r^2= 2.1D+00
   Bfn.  Coefficient  Atom+Function         Bfn.  Coefficient  Atom+Function  
  ----- ------------  ---------------      ----- ------------  ---------------
     3      0.315447  1 H  s                 38      0.315447  2 H  s          
     4      0.206903  1 H  s                 39      0.206903  2 H  s          
     2      0.164394  1 H  s                 37      0.164394  2 H  s          

 Vector    2  Occ=5.854045D-01  E=-1.609435D-01  Symmetry=a
              MO Center=  1.1D-14, -2.2D-12, -8.1D-15, r^2= 2.2D+00
   Bfn.  Coefficient  Atom+Function         Bfn.  Coefficient  Atom+Function  
  ----- ------------  ---------------      ----- ------------  ---------------
     3      0.394677  1 H  s                 38     -0.394677  2 H  s          
     4      0.204636  1 H  s                 39     -0.204636  2 H  s          
     2      0.198969  1 H  s                 37     -0.198969  2 H  s          

 Vector    3  Occ=1.099432D-03  E=-5.856092D-04  Symmetry=a
              MO Center= -3.5D-14,  3.1D-10,  2.4D-14, r^2= 2.7D+00
   Bfn.  Coefficient  Atom+Function         Bfn.  Coefficient  Atom+Function  
  ----- ------------  ---------------      ----- ------------  ---------------
     3      0.588938  1 H  s                 38      0.588938  2 H  s          
    12      0.584346  1 H  py                47     -0.584346  2 H  py         
     4     -0.490689  1 H  s                 39     -0.490689  2 H  s          

 Vector    4  Occ=5.444744D-04  E=-3.064466D-04  Symmetry=a
              MO Center= -4.4D-15,  4.5D-11, -7.2D-14, r^2= 2.2D+00
   Bfn.  Coefficient  Atom+Function         Bfn.  Coefficient  Atom+Function  
  ----- ------------  ---------------      ----- ------------  ---------------
    10      1.047080  1 H  pz                45      1.047080  2 H  pz         
    13     -0.823631  1 H  pz                48     -0.823631  2 H  pz         
    33     -0.489065  1 H  fyyz              68     -0.489065  2 H  fyyz       
    28     -0.441785  1 H  fxxz              35     -0.441785  1 H  fzzz       
    63     -0.441785  2 H  fxxz              70     -0.441785  2 H  fzzz       

 Vector    5  Occ=5.444744D-04  E=-3.064466D-04  Symmetry=a
              MO Center=  1.5D-13,  4.5D-11, -1.0D-14, r^2= 2.2D+00
   Bfn.  Coefficient  Atom+Function         Bfn.  Coefficient  Atom+Function  
  ----- ------------  ---------------      ----- ------------  ---------------
     8      1.047080  1 H  px                43      1.047080  2 H  px         
    11     -0.823631  1 H  px                46     -0.823631  2 H  px         
    29     -0.489065  1 H  fxyy              64     -0.489065  2 H  fxyy       
    26     -0.441785  1 H  fxxx              31     -0.441785  1 H  fxzz       
    61     -0.441785  2 H  fxxx              66     -0.441785  2 H  fxzz       

 Vector    6  Occ=4.533140D-05  E=-2.890673D-05  Symmetry=a
              MO Center= -9.7D-14,  1.0D-10,  5.8D-14, r^2= 2.1D+00
   Bfn.  Coefficient  Atom+Function         Bfn.  Coefficient  Atom+Function  
  ----- ------------  ---------------      ----- ------------  ---------------
     9      0.852078  1 H  py                44     -0.852078  2 H  py         
     2      0.656081  1 H  s                 37      0.656081  2 H  s          
     4     -0.408534  1 H  s                 39     -0.408534  2 H  s          
    27     -0.344837  1 H  fxxy              34     -0.344837  1 H  fyzz       
    62      0.344837  2 H  fxxy              69      0.344837  2 H  fyzz       

 Vector    7  Occ=1.680572D-05  E=-1.387987D-05  Symmetry=a
              MO Center= -6.0D-13, -2.3D-11,  4.0D-14, r^2= 1.6D+00
   Bfn.  Coefficient  Atom+Function         Bfn.  Coefficient  Atom+Function  
  ----- ------------  ---------------      ----- ------------  ---------------
     8      1.002629  1 H  px                43     -1.002629  2 H  px         
    21      0.308476  1 H  dxy               56      0.308476  2 H  dxy        
    26     -0.304514  1 H  fxxx              31     -0.304514  1 H  fxzz       
    61      0.304514  2 H  fxxx              66      0.304514  2 H  fxzz       
    11      0.266355  1 H  px                46     -0.266355  2 H  px         

 Vector    8  Occ=1.680572D-05  E=-1.387987D-05  Symmetry=a
              MO Center=  2.0D-14, -2.3D-11,  3.1D-13, r^2= 1.6D+00
   Bfn.  Coefficient  Atom+Function         Bfn.  Coefficient  Atom+Function  
  ----- ------------  ---------------      ----- ------------  ---------------
    10      1.002629  1 H  pz                45     -1.002629  2 H  pz         
    24      0.308476  1 H  dyz               59      0.308476  2 H  dyz        
    28     -0.304514  1 H  fxxz              35     -0.304514  1 H  fzzz       
    63      0.304514  2 H  fxxz              70      0.304514  2 H  fzzz       
    13      0.266355  1 H  pz                48     -0.266355  2 H  pz         

 Vector    9  Occ=1.331812D-05  E=-1.206522D-05  Symmetry=a
              MO Center=  3.3D-12,  4.2D-11, -2.0D-12, r^2= 2.0D+00
   Bfn.  Coefficient  Atom+Function         Bfn.  Coefficient  Atom+Function  
  ----- ------------  ---------------      ----- ------------  ---------------
     9      1.271849  1 H  py                44      1.271849  2 H  py         
     3     -0.796800  1 H  s                 38      0.796800  2 H  s          
     2      0.742538  1 H  s                 37     -0.742538  2 H  s          
    27     -0.430350  1 H  fxxy              34     -0.430350  1 H  fyzz       
    62     -0.430350  2 H  fxxy              69     -0.430350  2 H  fyzz       

 Vector   10  Occ=5.227267D-06  E=-6.502922D-06  Symmetry=a
              MO Center=  1.2D-14,  2.2D-09, -9.7D-15, r^2= 2.5D+00
   Bfn.  Coefficient  Atom+Function         Bfn.  Coefficient  Atom+Function  
  ----- ------------  ---------------      ----- ------------  ---------------
     9      4.163249  1 H  py                44     -4.163249  2 H  py         
    27     -1.863170  1 H  fxxy              34     -1.863170  1 H  fyzz       
    62      1.863170  2 H  fxxy              69      1.863170  2 H  fyzz       
    32     -1.514489  1 H  fyyy              67      1.514489  2 H  fyyy       
     6     -1.073361  1 H  py                41      1.073361  2 H  py         

 Vector   11  Occ=0.000000D+00  E= 4.611518D-01  Symmetry=a
              MO Center=  1.1D-12, -2.1D-10, -6.9D-13, r^2= 8.2D+00
   Bfn.  Coefficient  Atom+Function         Bfn.  Coefficient  Atom+Function  
  ----- ------------  ---------------      ----- ------------  ---------------
     3      2.986208  1 H  s                 38     -2.986208  2 H  s          
     4     -2.258914  1 H  s                 39      2.258914  2 H  s          
     2     -0.714358  1 H  s                 37      0.714358  2 H  s          
    23     -0.428853  1 H  dyy               58      0.428853  2 H  dyy        
    20     -0.366788  1 H  dxx               25     -0.366788  1 H  dzz        

 Vector   12  Occ=0.000000D+00  E= 8.067068D-01  Symmetry=a
              MO Center= -5.1D-15, -1.6D-09,  3.8D-15, r^2= 5.7D+00
   Bfn.  Coefficient  Atom+Function         Bfn.  Coefficient  Atom+Function  
  ----- ------------  ---------------      ----- ------------  ---------------
     3      3.834182  1 H  s                 38      3.834182  2 H  s          
     4     -1.498420  1 H  s                 39     -1.498420  2 H  s          
     2     -1.197352  1 H  s                 37     -1.197352  2 H  s          
    23     -0.629058  1 H  dyy               58     -0.629058  2 H  dyy        
    20     -0.581895  1 H  dxx               25     -0.581895  1 H  dzz        

 Vector   13  Occ=0.000000D+00  E= 8.776128D-01  Symmetry=a
              MO Center= -5.5D-12, -2.0D-09,  3.3D-12, r^2= 3.2D+00
   Bfn.  Coefficient  Atom+Function         Bfn.  Coefficient  Atom+Function  
  ----- ------------  ---------------      ----- ------------  ---------------
     9      2.841103  1 H  py                44      2.841103  2 H  py         
    12     -1.537380  1 H  py                47     -1.537380  2 H  py         
     3     -1.495007  1 H  s                 38      1.495007  2 H  s          
    27     -1.098316  1 H  fxxy              32     -1.103802  1 H  fyyy       
    34     -1.098316  1 H  fyzz              62     -1.098316  2 H  fxxy       

 Vector   14  Occ=0.000000D+00  E= 1.328233D+00  Symmetry=a
              MO Center=  3.1D-12, -8.2D-11, -3.3D-13, r^2= 3.7D+00
   Bfn.  Coefficient  Atom+Function         Bfn.  Coefficient  Atom+Function  
  ----- ------------  ---------------      ----- ------------  ---------------
     8      5.373796  1 H  px                43     -5.373796  2 H  px         
    26     -2.088618  1 H  fxxx              31     -2.088618  1 H  fxzz       
    61      2.088618  2 H  fxxx              66      2.088618  2 H  fxzz       
    29     -2.073997  1 H  fxyy              64      2.073997  2 H  fxyy       
    11     -1.547823  1 H  px                46      1.547823  2 H  px         

 Vector   15  Occ=0.000000D+00  E= 1.328233D+00  Symmetry=a
              MO Center= -1.5D-13, -8.1D-11, -1.4D-12, r^2= 3.7D+00
   Bfn.  Coefficient  Atom+Function         Bfn.  Coefficient  Atom+Function  
  ----- ------------  ---------------      ----- ------------  ---------------
    10      5.373796  1 H  pz                45     -5.373796  2 H  pz         
    28     -2.088618  1 H  fxxz              35     -2.088618  1 H  fzzz       
    63      2.088618  2 H  fxxz              70      2.088618  2 H  fzzz       
    33     -2.073997  1 H  fyyz              68      2.073997  2 H  fyyz       
    13     -1.547823  1 H  pz                48      1.547823  2 H  pz         

 Vector   16  Occ=0.000000D+00  E= 1.693399D+00  Symmetry=a
              MO Center= -1.4D-12,  1.6D-09,  8.7D-13, r^2= 3.8D+00
   Bfn.  Coefficient  Atom+Function         Bfn.  Coefficient  Atom+Function  
  ----- ------------  ---------------      ----- ------------  ---------------
     9      4.778072  1 H  py                44      4.778072  2 H  py         
     3      2.426712  1 H  s                 38     -2.426712  2 H  s          
    27     -1.805628  1 H  fxxy              32     -1.813182  1 H  fyyy       
    34     -1.805628  1 H  fyzz              62     -1.805628  2 H  fxxy       
    67     -1.813182  2 H  fyyy              69     -1.805628  2 H  fyzz       

 Vector   17  Occ=0.000000D+00  E= 1.798824D+00  Symmetry=a
              MO Center= -4.0D-14,  4.0D-11,  8.1D-15, r^2= 2.6D+00
   Bfn.  Coefficient  Atom+Function         Bfn.  Coefficient  Atom+Function  
  ----- ------------  ---------------      ----- ------------  ---------------
     8      5.974373  1 H  px                43      5.974373  2 H  px         
    26     -2.332826  1 H  fxxx              29     -2.336544  1 H  fxyy       
    31     -2.332826  1 H  fxzz              61     -2.332826  2 H  fxxx       
    64     -2.336544  2 H  fxyy              66     -2.332826  2 H  fxzz       
     5     -1.578992  1 H  px                40     -1.578992  2 H  px         

 Vector   18  Occ=0.000000D+00  E= 1.798824D+00  Symmetry=a
              MO Center=  1.7D-15,  4.0D-11,  1.8D-14, r^2= 2.6D+00
   Bfn.  Coefficient  Atom+Function         Bfn.  Coefficient  Atom+Function  
  ----- ------------  ---------------      ----- ------------  ---------------
    10      5.974373  1 H  pz                45      5.974373  2 H  pz         
    28     -2.332826  1 H  fxxz              33     -2.336544  1 H  fyyz       
    35     -2.332826  1 H  fzzz              63     -2.332826  2 H  fxxz       
    68     -2.336544  2 H  fyyz              70     -2.332826  2 H  fzzz       
     7     -1.578992  1 H  pz                42     -1.578992  2 H  pz         

 Vector   19  Occ=0.000000D+00  E= 1.956604D+00  Symmetry=a
              MO Center= -2.0D-16,  1.6D-11,  5.7D-15, r^2= 2.5D+00
   Bfn.  Coefficient  Atom+Function         Bfn.  Coefficient  Atom+Function  
  ----- ------------  ---------------      ----- ------------  ---------------
    24      1.057422  1 H  dyz               59     -1.057422  2 H  dyz        
    21      0.723651  1 H  dxy               56     -0.723651  2 H  dxy        
    10      0.530879  1 H  pz                45      0.530879  2 H  pz         
     8      0.363310  1 H  px                43      0.363310  2 H  px         
    13     -0.254853  1 H  pz                48     -0.254853  2 H  pz         

 Vector   20  Occ=0.000000D+00  E= 1.956604D+00  Symmetry=a
              MO Center= -1.6D-14,  1.6D-11,  1.9D-14, r^2= 2.5D+00
   Bfn.  Coefficient  Atom+Function         Bfn.  Coefficient  Atom+Function  
  ----- ------------  ---------------      ----- ------------  ---------------
    21      1.057422  1 H  dxy               56     -1.057422  2 H  dxy        
    24     -0.723651  1 H  dyz               59      0.723651  2 H  dyz        
     8      0.530879  1 H  px                43      0.530879  2 H  px         
    10     -0.363310  1 H  pz                45     -0.363310  2 H  pz         
    11     -0.254853  1 H  px                46     -0.254853  2 H  px         


 Wrote Lagrangian and 1- and 2-particle density matrices to ./H2.mcpdm


     Multipole analysis of the density
     ---------------------------------

     L   x y z        total        nuclear
     -   - - -        -----        -------
     0   0 0 0     -0.000000      2.000000

     1   1 0 0     -0.000000      0.000000
     1   0 1 0     -0.000000      0.000000
     1   0 0 1      0.000000      0.000000

     2   2 0 0     -2.069334      0.000000
     2   1 1 0      0.000000      0.000000
     2   1 0 1     -0.000000      0.000000
     2   0 2 0     -1.591386      9.461250
     2   0 1 1     -0.000000      0.000000
     2   0 0 2     -2.069334      0.000000


  Mulliken analysis of the total density
  --------------------------------------

    Atom       Charge   Shell Charges
 -----------   ------   -------------------------------------------------------
    1 H    1     1.00   0.04  0.21  0.47  0.27  0.00 -0.00  0.00  0.00  0.00  0.00
    2 H    1     1.00   0.04  0.21  0.47  0.27  0.00 -0.00  0.00  0.00  0.00  0.00

    Mulliken analysis of the active space density
    ---------------------------------------------

    Atom       Charge   Shell Charges
 -----------   ------   -------------------------------------------------------
    1 H    1     1.00   0.04  0.21  0.47  0.27  0.00 -0.00  0.00  0.00  0.00  0.00
    2 H    1     1.00   0.04  0.21  0.47  0.27  0.00 -0.00  0.00  0.00  0.00  0.00

 Parallel integral file used      17 records with       0 large values


 Task  times  cpu:        3.0s     wall:        3.2s


                                NWChem Input Module
                                -------------------


                                 NWChem SCF Module
                                 -----------------


                                        H2



  ao basis        = "ao basis"
  functions       =    70
  atoms           =     2
  closed shells   =     1
  open shells     =     0
  charge          =   0.00
  wavefunction    = RHF 
  input vectors   = ./H2.mos
  output vectors  = ./H2-4.35.mos
  use symmetry    = F
  symmetry adapt  = F


 Summary of "ao basis" -> "ao basis" (cartesian)
 ------------------------------------------------------------------------------
       Tag                 Description            Shells   Functions and Types
 ---------------- ------------------------------  ------  ---------------------
 H                          cc-pVQZ                 10       35   4s3p2d1f



 Forming initial guess at       3.2s


 Loading old vectors from job with title :

H2


 Starting SCF solution at       3.2s



 ----------------------------------------------
         Quadratically convergent ROHF

 Convergence threshold     :          1.000E-04
 Maximum no. of iterations :           30
 Final Fock-matrix accuracy:          1.000E-07
 ----------------------------------------------


 Integral file          = ./H2.aoints.0
 Record size in doubles =  65536        No. of integs per rec  =  43688
 Max. records in memory =     99        Max. records in file   = 280238
 No. of bits per label  =      8        No. of bits per value  =     64


 #quartets = 2.032D+04 #integrals = 5.917D+05 #direct =  0.0% #cached =100.0%



       Final RHF  results 
       ------------------ 

         Total SCF energy =     -0.875013406178
      One-electron energy =     -1.520769312398
      Two-electron energy =      0.415870848749
 Nuclear repulsion energy =      0.229885057471

        Time for solution =      0.0s


             Final eigenvalues
             -----------------

              1      
    1   -0.3381
    2   -0.1609
    3   -0.0006
    4   -0.0003
    5   -0.0003
    6   -0.0000
    7   -0.0000
    8   -0.0000
    9   -0.0000
   10   -0.0000
   11    0.4612

                       ROHF Final Molecular Orbital Analysis
                       -------------------------------------

 Vector    1  Occ=2.000000D+00  E=-3.381365D-01
              MO Center=  3.2D-15,  1.6D-12, -2.1D-15, r^2= 2.1D+00
   Bfn.  Coefficient  Atom+Function         Bfn.  Coefficient  Atom+Function  
  ----- ------------  ---------------      ----- ------------  ---------------
     3      0.315447  1 H  s                 38      0.315447  2 H  s          
     4      0.206903  1 H  s                 39      0.206903  2 H  s          
     2      0.164394  1 H  s                 37      0.164394  2 H  s          

 Vector    2  Occ=0.000000D+00  E=-1.609435D-01
              MO Center=  1.1D-14, -2.2D-12, -8.1D-15, r^2= 2.2D+00
   Bfn.  Coefficient  Atom+Function         Bfn.  Coefficient  Atom+Function  
  ----- ------------  ---------------      ----- ------------  ---------------
     3      0.394677  1 H  s                 38     -0.394677  2 H  s          
     4      0.204636  1 H  s                 39     -0.204636  2 H  s          
     2      0.198969  1 H  s                 37     -0.198969  2 H  s          

 Vector    3  Occ=0.000000D+00  E=-5.856092D-04
              MO Center= -3.5D-14,  3.1D-10,  2.4D-14, r^2= 2.7D+00
   Bfn.  Coefficient  Atom+Function         Bfn.  Coefficient  Atom+Function  
  ----- ------------  ---------------      ----- ------------  ---------------
     3      0.588938  1 H  s                 38      0.588938  2 H  s          
    12      0.584346  1 H  py                47     -0.584346  2 H  py         
     4     -0.490689  1 H  s                 39     -0.490689  2 H  s          

 Vector    4  Occ=0.000000D+00  E=-3.064466D-04
              MO Center= -4.4D-15,  4.5D-11, -7.2D-14, r^2= 2.2D+00
   Bfn.  Coefficient  Atom+Function         Bfn.  Coefficient  Atom+Function  
  ----- ------------  ---------------      ----- ------------  ---------------
    10      1.047080  1 H  pz                45      1.047080  2 H  pz         
    13     -0.823631  1 H  pz                48     -0.823631  2 H  pz         
    33     -0.489065  1 H  fyyz              68     -0.489065  2 H  fyyz       
    28     -0.441785  1 H  fxxz              35     -0.441785  1 H  fzzz       
    63     -0.441785  2 H  fxxz              70     -0.441785  2 H  fzzz       

 Vector    5  Occ=0.000000D+00  E=-3.064466D-04
              MO Center=  1.5D-13,  4.5D-11, -1.0D-14, r^2= 2.2D+00
   Bfn.  Coefficient  Atom+Function         Bfn.  Coefficient  Atom+Function  
  ----- ------------  ---------------      ----- ------------  ---------------
     8      1.047080  1 H  px                43      1.047080  2 H  px         
    11     -0.823631  1 H  px                46     -0.823631  2 H  px         
    29     -0.489065  1 H  fxyy              64     -0.489065  2 H  fxyy       
    26     -0.441785  1 H  fxxx              31     -0.441785  1 H  fxzz       
    61     -0.441785  2 H  fxxx              66     -0.441785  2 H  fxzz       

 Vector    6  Occ=0.000000D+00  E=-2.890673D-05
              MO Center= -9.7D-14,  1.0D-10,  5.8D-14, r^2= 2.1D+00
   Bfn.  Coefficient  Atom+Function         Bfn.  Coefficient  Atom+Function  
  ----- ------------  ---------------      ----- ------------  ---------------
     9      0.852078  1 H  py                44     -0.852078  2 H  py         
     2      0.656081  1 H  s                 37      0.656081  2 H  s          
     4     -0.408534  1 H  s                 39     -0.408534  2 H  s          
    27     -0.344837  1 H  fxxy              34     -0.344837  1 H  fyzz       
    62      0.344837  2 H  fxxy              69      0.344837  2 H  fyzz       

 Vector    7  Occ=0.000000D+00  E=-1.387987D-05
              MO Center= -6.0D-13, -2.3D-11,  4.0D-14, r^2= 1.6D+00
   Bfn.  Coefficient  Atom+Function         Bfn.  Coefficient  Atom+Function  
  ----- ------------  ---------------      ----- ------------  ---------------
     8      1.002629  1 H  px                43     -1.002629  2 H  px         
    21      0.308476  1 H  dxy               56      0.308476  2 H  dxy        
    26     -0.304514  1 H  fxxx              31     -0.304514  1 H  fxzz       
    61      0.304514  2 H  fxxx              66      0.304514  2 H  fxzz       
    11      0.266355  1 H  px                46     -0.266355  2 H  px         

 Vector    8  Occ=0.000000D+00  E=-1.387987D-05
              MO Center=  2.0D-14, -2.3D-11,  3.1D-13, r^2= 1.6D+00
   Bfn.  Coefficient  Atom+Function         Bfn.  Coefficient  Atom+Function  
  ----- ------------  ---------------      ----- ------------  ---------------
    10      1.002629  1 H  pz                45     -1.002629  2 H  pz         
    24      0.308476  1 H  dyz               59      0.308476  2 H  dyz        
    28     -0.304514  1 H  fxxz              35     -0.304514  1 H  fzzz       
    63      0.304514  2 H  fxxz              70      0.304514  2 H  fzzz       
    13      0.266355  1 H  pz                48     -0.266355  2 H  pz         

 Vector    9  Occ=0.000000D+00  E=-1.206522D-05
              MO Center=  3.3D-12,  4.2D-11, -2.0D-12, r^2= 2.0D+00
   Bfn.  Coefficient  Atom+Function         Bfn.  Coefficient  Atom+Function  
  ----- ------------  ---------------      ----- ------------  ---------------
     9      1.271849  1 H  py                44      1.271849  2 H  py         
     3     -0.796800  1 H  s                 38      0.796800  2 H  s          
     2      0.742538  1 H  s                 37     -0.742538  2 H  s          
    27     -0.430350  1 H  fxxy              34     -0.430350  1 H  fyzz       
    62     -0.430350  2 H  fxxy              69     -0.430350  2 H  fyzz       

 Vector   10  Occ=0.000000D+00  E=-6.502922D-06
              MO Center=  1.2D-14,  2.2D-09, -9.7D-15, r^2= 2.5D+00
   Bfn.  Coefficient  Atom+Function         Bfn.  Coefficient  Atom+Function  
  ----- ------------  ---------------      ----- ------------  ---------------
     9      4.163249  1 H  py                44     -4.163249  2 H  py         
    27     -1.863170  1 H  fxxy              34     -1.863170  1 H  fyzz       
    62      1.863170  2 H  fxxy              69      1.863170  2 H  fyzz       
    32     -1.514489  1 H  fyyy              67      1.514489  2 H  fyyy       
     6     -1.073361  1 H  py                41      1.073361  2 H  py         

 Vector   11  Occ=0.000000D+00  E= 4.611518D-01
              MO Center=  1.1D-12, -2.1D-10, -6.9D-13, r^2= 8.2D+00
   Bfn.  Coefficient  Atom+Function         Bfn.  Coefficient  Atom+Function  
  ----- ------------  ---------------      ----- ------------  ---------------
     3      2.986208  1 H  s                 38     -2.986208  2 H  s          
     4     -2.258914  1 H  s                 39      2.258914  2 H  s          
     2     -0.714358  1 H  s                 37      0.714358  2 H  s          
    23     -0.428853  1 H  dyy               58      0.428853  2 H  dyy        
    20     -0.366788  1 H  dxx               25     -0.366788  1 H  dzz        

 Vector   12  Occ=0.000000D+00  E= 8.067068D-01
              MO Center= -5.1D-15, -1.6D-09,  3.8D-15, r^2= 5.7D+00
   Bfn.  Coefficient  Atom+Function         Bfn.  Coefficient  Atom+Function  
  ----- ------------  ---------------      ----- ------------  ---------------
     3      3.834182  1 H  s                 38      3.834182  2 H  s          
     4     -1.498420  1 H  s                 39     -1.498420  2 H  s          
     2     -1.197352  1 H  s                 37     -1.197352  2 H  s          
    23     -0.629058  1 H  dyy               58     -0.629058  2 H  dyy        
    20     -0.581895  1 H  dxx               25     -0.581895  1 H  dzz        


 center of mass
 --------------
 x =   0.00000000 y =   0.00000000 z =   0.00000000

 moments of inertia (a.u.)
 ------------------
           9.535284281250           0.000000000000           0.000000000000
           0.000000000000           0.000000000000           0.000000000000
           0.000000000000           0.000000000000           9.535284281250

  Mulliken analysis of the total density
  --------------------------------------

    Atom       Charge   Shell Charges
 -----------   ------   -------------------------------------------------------
    1 H    1     1.00   0.04  0.19  0.46  0.31  0.00 -0.00  0.00  0.00  0.00  0.00
    2 H    1     1.00   0.04  0.19  0.46  0.31  0.00 -0.00  0.00  0.00  0.00  0.00

       Multipole analysis of the density wrt the origin
       ------------------------------------------------

     L   x y z        total         open         nuclear
     -   - - -        -----         ----         -------
     0   0 0 0     -0.000000      0.000000      2.000000

     1   1 0 0     -0.000000      0.000000      0.000000
     1   0 1 0     -0.000000      0.000000      0.000000
     1   0 0 1      0.000000      0.000000      0.000000

     2   2 0 0     -2.206368      0.000000      0.000000
     2   1 1 0     -0.000000      0.000000      0.000000
     2   1 0 1      0.000000      0.000000      0.000000
     2   0 2 0     -1.033949      0.000000      9.461250
     2   0 1 1      0.000000      0.000000      0.000000
     2   0 0 2     -2.206368      0.000000      0.000000


 Parallel integral file used      14 records with       0 large values

                   NWChem Extensible Many-Electron Theory Module
                   ---------------------------------------------

              ======================================================
                   This portion of the program was automatically
                  generated by a Tensor Contraction Engine (TCE).
                  The development of this portion of the program
                 and TCE was supported by US Department of Energy,
                Office of Science, Office of Basic Energy Science.
                      TCE is a product of Battelle and PNNL.
              Please cite: S.Hirata, J.Phys.Chem.A 107, 9887 (2003).
              ======================================================

                                        H2


            General Information
            -------------------
      Number of processors :     1
         Wavefunction type : Restricted Hartree-Fock
          No. of electrons :     2
           Alpha electrons :     1
            Beta electrons :     1
           No. of orbitals :   140
            Alpha orbitals :    70
             Beta orbitals :    70
        Alpha frozen cores :     0
         Beta frozen cores :     0
     Alpha frozen virtuals :     0
      Beta frozen virtuals :     0
         Spin multiplicity : singlet 
    Number of AO functions :    70
       Number of AO shells :    20
        Use of symmetry is : off
      Symmetry adaption is : off
         Schwarz screening : 0.10D-09

          Correlation Information
          -----------------------
          Calculation type : Coupled-cluster singles & doubles                           
   Perturbative correction : none                                                        
            Max iterations :      300
        Residual threshold : 0.10D-06
     T(0) DIIS level shift : 0.80D+00
     L(0) DIIS level shift : 0.00D+00
     T(1) DIIS level shift : 0.00D+00
     L(1) DIIS level shift : 0.00D+00
     T(R) DIIS level shift : 0.00D+00
     T(I) DIIS level shift : 0.00D+00
   CC-T/L Amplitude update :  5-th order DIIS
                I/O scheme : Global Array Library
        L-threshold :  0.10D-06
        EOM-threshold :  0.10D-06
 no EOMCCSD initial starts read in
 TCE RESTART OPTIONS
 READ_INT:   F
 WRITE_INT:  F
 READ_TA:    F
 WRITE_TA:   F
 READ_XA:    F
 WRITE_XA:   F
 READ_IN3:   F
 WRITE_IN3:  F
 SLICE:      F
 D4D5:       F
 quantumc:   F
 qrotation:  F
 pwtce:      F
 qducc:      T
 nacto:                         0
 nrotv:                         0
 nrot:                          0

            Memory Information
            ------------------
          Available GA space size is    1610607836 doubles
          Available MA space size is    1610610644 doubles

 Maximum block size        32 doubles

 tile_dim =     23

 Block   Spin    Irrep     Size     Offset   Alpha
 -------------------------------------------------
   1    alpha     a      1 doubles       0       1
   2    beta      a      1 doubles       1       1
   3    alpha     a     23 doubles       2       3
   4    alpha     a     23 doubles      25       4
   5    alpha     a     23 doubles      48       5
   6    beta      a     23 doubles      71       3
   7    beta      a     23 doubles      94       4
   8    beta      a     23 doubles     117       5

 Global array virtual files algorithm will be used

 Parallel file system coherency ......... OK

 Integral file          = ./H2.aoints.0
 Record size in doubles =  65536        No. of integs per rec  =  43688
 Max. records in memory =     99        Max. records in file   = 280238
 No. of bits per label  =      8        No. of bits per value  =     64


 #quartets = 2.137D+04 #integrals = 7.181D+05 #direct =  0.0% #cached =100.0%


 Fock matrix recomputed
 1-e file size   =             4900
 1-e file name   = ./H2.f1
 Cpu & wall time / sec            0.1            0.1
 4-electron integrals stored in orbital form

 v2    file size   =          6102085
 4-index algorithm nr.  13 is used
 imaxsize =       30
 imaxsize ichop =        0
 Cpu & wall time / sec            1.9            2.1
 T1-number-of-tasks                    3

 t1 file size   =               69
 t1 file name   = ./H2.t1
 t1 file handle =       -998
 T2-number-of-boxes                   15

 t2 file size   =             7935
 t2 file name   = ./H2.t2
 t2 file handle =       -996
CCSD iterations
 ---------------------------------------------------------
 Iter          Residuum       Correlation     Cpu    Wall 
 ---------------------------------------------------------
NEW TASK SCHEDULING
CCSD_T1_NTS --- OK
CCSD_T2_NTS --- OK
    1   0.7139925202513  -0.1600891599449     0.1     0.1
    2   0.4381741372777  -0.1110790829067     0.1     0.1
    3   0.3382235274282  -0.1358075261341     0.1     0.1
    4   0.3172724724193  -0.1190825253965     0.1     0.1
    5   0.3157674166263  -0.1326772069020     0.1     0.1
 MICROCYCLE DIIS UPDATE:                    5                    5
    6   0.0263311640079  -0.1268598068471     0.1     0.1
    7   0.0194896584887  -0.1284097249398     0.1     0.1
    8   0.0158635480191  -0.1292323250580     0.1     0.1
    9   0.0130735317313  -0.1301286491651     0.1     0.1
   10   0.0109297165751  -0.1307153485285     0.1     0.1
 MICROCYCLE DIIS UPDATE:                   10                    5
   11   0.0028749868638  -0.1336430513621     0.1     0.1
   12   0.0019740459233  -0.1336934474451     0.1     0.1
   13   0.0015199841853  -0.1338183813199     0.1     0.1
   14   0.0012545598539  -0.1338872723430     0.2     0.2
   15   0.0010430318875  -0.1339798670825     0.1     0.1
 MICROCYCLE DIIS UPDATE:                   15                    5
   16   0.0005465544781  -0.1342435810686     0.1     0.1
   17   0.0003865248103  -0.1342844815403     0.1     0.1
   18   0.0003165705150  -0.1343036729241     0.1     0.1
   19   0.0002681086979  -0.1343242097110     0.1     0.1
   20   0.0002392673366  -0.1343390341249     0.1     0.1
 MICROCYCLE DIIS UPDATE:                   20                    5
   21   0.0000859166343  -0.1343885094475     0.1     0.1
   22   0.0000640325399  -0.1343910004345     0.1     0.1
   23   0.0000512354864  -0.1343941858316     0.1     0.1
   24   0.0000424081397  -0.1343965598735     0.1     0.1
   25   0.0000354927456  -0.1343989332991     0.1     0.1
 MICROCYCLE DIIS UPDATE:                   25                    5
   26   0.0000153035319  -0.1344086687023     0.1     0.1
   27   0.0000094710467  -0.1344098966841     0.1     0.1
   28   0.0000076607204  -0.1344103525404     0.1     0.1
   29   0.0000065784290  -0.1344108905092     0.2     0.2
   30   0.0000060826389  -0.1344112186266     0.1     0.1
 MICROCYCLE DIIS UPDATE:                   30                    5
   31   0.0000021908901  -0.1344122526415     0.0     0.1
   32   0.0000016503963  -0.1344123120212     0.1     0.1
   33   0.0000013351791  -0.1344124051615     0.1     0.1
   34   0.0000011224138  -0.1344124680051     0.1     0.1
   35   0.0000009390505  -0.1344125368233     0.1     0.1
 MICROCYCLE DIIS UPDATE:                   35                    5
   36   0.0000003698720  -0.1344128106679     0.1     0.1
   37   0.0000002459575  -0.1344128385314     0.1     0.1
   38   0.0000001941953  -0.1344128491868     0.1     0.1
   39   0.0000001703582  -0.1344128643228     0.1     0.1
   40   0.0000001622183  -0.1344128709815     0.1     0.1
 MICROCYCLE DIIS UPDATE:                   40                    5
   41   0.0000000542056  -0.1344128940462     0.1     0.1
 -----------------------------------------------------------------
 Iterations converged
 CCSD correlation energy / hartree =        -0.134412894046207
 CCSD total energy / hartree       =        -1.009426300223755

 Singles contributions

 Doubles contributions
     2a   (alpha)     2a   (beta ) ---     1a   (alpha)     1a   (beta )       -0.6414263242
     3a   (alpha)     3a   (beta ) ---     1a   (alpha)     1a   (beta )       -0.0276345306
 Ground state specification:
 exp(T)|Ref>~(1+T)|Ref>
 ------- a(p)+/a(q) strings ----------

 singles norm

 doubles norm

 Reference string
  0.84172587400983823      :(1a)+ (1b)+ |0>

 Singles strings

 Doubles strings
 -0.53990513335434587      :(2a)+ (2b)+ (1b)  (1a)  (1a)+ (1b)+ |0>
 -------------------------------------
 enrep_tce =   0.22988505747126434     
  EHF(total)         =        -0.87501341
  Shift (HFtot-HFA)  =         0.00000000
 ALL OCCUPIED ORBITALS ARE ACTIVE IN DUCC --> NO SHIFT
 Number of active orbitals                   10
 Number of active alpha electrons                    1
 Number of active beta electrons                    1
  nos                     2
  nvs                   138
 noas                     1
 nobs                     1
 nvas                    69
 nvbs                    69
 nactv                     9
 DUCC MODEL =                     3
 NONHF =  T
 F-T1 correlation    =    7.7519521558481212E-006
 V-T1-T1 correlation =    2.5320010847213867E-010
 V-T2 correlation    =  -0.13442064625156036     
 Total correlation   =  -0.13441289404620441     
 F-T1(Ext) correlation         =   -2.9789898390996501E-007
 V-T1(Ext)-T1(Ext) correlation =    9.7366577577574071E-011
 V-T2(Ext) correlation         =   -6.3390091484472012E-004
 Total Ext correlation         =   -6.3419871646205254E-004
1-BODY TIME =    0.035 SECONDS.
  HHHH TIME =    0.014 SECONDS.
  PPPP TIME =    0.001 SECONDS.
  HHHP TIME =    0.033 SECONDS.
  PPPH TIME =    0.078 SECONDS.
  HPHP TIME =    0.012 SECONDS.
  HHPP TIME =    0.306 SECONDS.
 ONE-BODY UNITARY CHECK
 TWO-BODY UNITARY CHECK
 TWO-BODY ANTISYMMETRY CHECK
 TRANSFORMED ~FOCK~ MATRIX
    1    1        -0.3456549033
    1    3        -0.0103992389
    1    6         0.0732320114
    1   10        -0.0138789196
    2    2        -0.0357658492
    2    9         0.1032156824
    3    1        -0.0103992389
    3    3         0.5124897065
    3    6        -0.0094335253
    3    9         0.0000000001
    3   10         0.3644678530
    4    4         0.5621122476
    5    5         0.5621122476
    6    1         0.0732320114
    6    3        -0.0094335253
    6    6         0.7800613667
    6   10         0.0778642745
    7    7         1.2107336559
    8    8         1.2107336559
    9    2         0.1032156824
    9    3         0.0000000001
    9    9         1.3797609567
    9   10        -0.0000000006
   10    1        -0.0138789196
   10    3         0.3644678530
   10    6         0.0778642745
   10    9        -0.0000000006
   10   10         2.0588826464
 begin_one_electron_integrals
    1    1        -0.7603842660
    1    3        -0.0601681321
    1    6        -0.0036934286
    1   10        -0.0019374734
    2    2        -0.6893711542
    2    9        -0.0065000101
    3    1        -0.0601681321
    3    3        -0.1667574854
    3    6         0.0410164352
    3   10         0.2404341081
    4    4        -0.1121531887
    5    5        -0.1121531887
    6    1        -0.0036934286
    6    3         0.0410164352
    6    6         0.0347077534
    6   10         0.0870817550
    7    7         0.4166466090
    8    8         0.4166466090
    9    2        -0.0065000101
    9    9         0.5733747437
    9   10        -0.0000000005
   10    1        -0.0019374734
   10    3         0.2404341081
   10    6         0.0870817550
   10    9        -0.0000000005
   10   10         1.3088942764
 end_one_electron_integrals
 begin_two_electron_integrals
    1    1    1    1        0.4147293626
    1    1    1    3        0.0497688932
    1    1    1    6        0.0769254400
    1    1    1   10       -0.0119414462
    1    2    1    2        0.2007763564
    1    2    1    9        0.0493201609
    1    3    1    1        0.0497688932
    1    3    1    3        0.0566438577
    1    3    1    6       -0.0015199017
    1    3    1   10        0.0136129509
    1    4    1    4        0.0499764490
    1    5    1    5        0.0499764490
    1    6    1    1        0.0769254400
    1    6    1    3       -0.0015199017
    1    6    1    6        0.0701644557
    1    6    1   10       -0.0123030128
    1    7    1    7        0.0542580303
    1    8    1    8        0.0542580303
    1    9    1    2        0.0493201609
    1    9    1    9        0.0614932245
    1   10    1    1       -0.0119414462
    1   10    1    3        0.0136129509
    1   10    1    6       -0.0123030128
    1   10    1   10        0.0248653278
    1    1    2    2        0.4275608315
    1    1    2    9        0.0795981493
    1    2    2    1        0.2015163580
    1    2    2    3       -0.0176932066
    1    2    2    6        0.1152841051
    1    2    2   10       -0.0231097356
    1    3    2    2        0.0372295882
    1    3    2    9        0.0454570896
    1    4    2    7        0.0000950309
    1    4    2    8       -0.0536040562
    1    5    2    7       -0.0536040562
    1    5    2    8       -0.0000950309
    1    6    2    2        0.0964245896
    1    6    2    9        0.0484554030
    1    7    2    4        0.0000742227
    1    7    2    5       -0.0418667799
    1    8    2    4       -0.0418667799
    1    8    2    5       -0.0000742227
    1    9    2    1        0.0494806062
    1    9    2    3        0.0283444868
    1    9    2    6        0.0524138954
    1    9    2   10       -0.0015146287
    1   10    2    2       -0.0183375792
    1   10    2    9        0.0038999580
    1    1    3    1        0.0497688932
    1    1    3    3        0.3681706565
    1    1    3    6       -0.0260567800
    1    1    3   10        0.0689165356
    1    2    3    2       -0.0176936885
    1    2    3    9        0.1044501265
    1    2    3   10        0.0000000001
    1    3    3    1        0.0570941210
    1    3    3    3        0.0720139902
    1    3    3    6       -0.0178621838
    1    3    3   10        0.0558397320
    1    4    3    4        0.0109639241
    1    5    3    5        0.0109639241
    1    6    3    1       -0.0016635996
    1    6    3    3        0.0270311400
    1    6    3    6        0.0078240797
    1    6    3   10        0.0121437215
    1    7    3    7        0.0078704764
    1    8    3    8        0.0078704764
    1    9    3    2        0.0283659024
    1    9    3    9        0.0315965273
    1   10    3    1        0.0137993263
    1   10    3    3        0.0200524196
    1   10    3    6       -0.0008561987
    1   10    3   10        0.0162373277
    1    1    4    4        0.3622991621
    1    2    4    7        0.0002461676
    1    2    4    8       -0.1388556196
    1    3    4    4        0.0529515437
    1    4    4    1        0.0503328879
    1    4    4    3        0.0109715837
    1    4    4    6       -0.0221016804
    1    4    4   10       -0.0135513485
    1    6    4    4        0.0250866931
    1    7    4    2        0.0000742534
    1    7    4    9       -0.0000084699
    1    8    4    2       -0.0418840735
    1    8    4    9        0.0047775968
    1    9    4    7        0.0000503744
    1    9    4    8       -0.0284146609
    1   10    4    4       -0.0079330498
    1    1    5    5        0.3622991621
    1    2    5    7       -0.1388556196
    1    2    5    8       -0.0002461676
    1    3    5    5        0.0529515437
    1    5    5    1        0.0503328879
    1    5    5    3        0.0109715837
    1    5    5    6       -0.0221016804
    1    5    5   10       -0.0135513485
    1    6    5    5        0.0250866931
    1    7    5    2       -0.0418840735
    1    7    5    9        0.0047775968
    1    8    5    2       -0.0000742534
    1    8    5    9        0.0000084699
    1    9    5    7       -0.0284146609
    1    9    5    8       -0.0000503744
    1   10    5    5       -0.0079330498
    1    1    6    1        0.0769254400
    1    1    6    3       -0.0260567800
    1    1    6    6        0.4079517522
    1    1    6   10       -0.0108410428
    1    2    6    2        0.1152872949
    1    2    6    9        0.1261353726
    1    2    6   10       -0.0000000002
    1    3    6    1       -0.0016635996
    1    3    6    3       -0.0178682383
    1    3    6    6        0.0571833566
    1    3    6   10        0.0123140374
    1    4    6    4       -0.0221100139
    1    5    6    5       -0.0221100139
    1    6    6    1        0.0705498911
    1    6    6    3        0.0078265922
    1    6    6    6        0.0788418281
    1    6    6   10       -0.0244437805
    1    7    6    7        0.0131038826
    1    8    6    8        0.0131038826
    1    9    6    2        0.0524385980
    1    9    6    9        0.0563452338
    1   10    6    1       -0.0124646051
    1   10    6    3       -0.0008539619
    1   10    6    6       -0.0181932286
    1   10    6   10        0.0070185615
    1    1    7    7        0.4244063576
    1    2    7    4        0.0002461591
    1    2    7    5       -0.1388508132
    1    3    7    7        0.0607008001
    1    4    7    2        0.0000950531
    1    4    7    9        0.0000016012
    1    5    7    2       -0.0536165434
    1    5    7    9       -0.0009032071
    1    6    7    7        0.0680247718
    1    7    7    1        0.0547256683
    1    7    7    3        0.0078754314
    1    7    7    6        0.0131147967
    1    7    7   10       -0.0129536181
    1    9    7    4        0.0000503768
    1    9    7    5       -0.0284160058
    1   10    7    7       -0.0136450473
    1    1    8    8        0.4244063576
    1    2    8    4       -0.1388508132
    1    2    8    5       -0.0002461591
    1    3    8    8        0.0607008001
    1    4    8    2       -0.0536165434
    1    4    8    9       -0.0009032071
    1    5    8    2       -0.0000950531
    1    5    8    9       -0.0000016012
    1    6    8    8        0.0680247718
    1    8    8    1        0.0547256683
    1    8    8    3        0.0078754314
    1    8    8    6        0.0131147967
    1    8    8   10       -0.0129536181
    1    9    8    4       -0.0284160058
    1    9    8    5       -0.0000503768
    1   10    8    8       -0.0136450473
    1    1    9    2        0.0795981493
    1    1    9    9        0.4341482692
    1    2    9    1        0.0494806062
    1    2    9    3        0.1044534914
    1    2    9    6        0.1261144385
    1    2    9   10        0.0251937540
    1    3    9    2        0.0454818701
    1    3    9    9        0.0713697207
    1    4    9    7        0.0000015903
    1    4    9    8       -0.0008970654
    1    5    9    7       -0.0008970654
    1    5    9    8       -0.0000015903
    1    6    9    2        0.0484591715
    1    6    9    9        0.0929138942
    1    7    9    4       -0.0000084784
    1    7    9    5        0.0047823935
    1    8    9    4        0.0047823935
    1    8    9    5        0.0000084784
    1    9    9    1        0.0619103254
    1    9    9    3        0.0315975017
    1    9    9    6        0.0563437396
    1    9    9   10        0.0300332948
    1   10    9    2        0.0039184417
    1   10    9    9        0.0041729551
    1    1   10    1       -0.0119414462
    1    1   10    3        0.0689165356
    1    1   10    6       -0.0108410428
    1    1   10   10        0.3876288774
    1    2   10    2       -0.0231108671
    1    2   10    3        0.0000000001
    1    2   10    6       -0.0000000002
    1    2   10    9        0.0251883493
    1    3   10    1        0.0137993263
    1    3   10    3        0.0558410129
    1    3   10    6        0.0123142165
    1    3   10   10        0.0715928071
    1    4   10    4       -0.0135510884
    1    5   10    5       -0.0135510884
    1    6   10    1       -0.0124646051
    1    6   10    3        0.0121461374
    1    6   10    6       -0.0244450373
    1    6   10   10        0.0458933221
    1    7   10    7       -0.0129525835
    1    8   10    8       -0.0129525835
    1    9   10    2       -0.0015015496
    1    9   10    9        0.0300345409
    1   10   10    1        0.0252693847
    1   10   10    3        0.0162400817
    1   10   10    6        0.0070195118
    1   10   10   10        0.0196460426
    2    1    1    2        0.2015163580
    2    1    1    9        0.0494806062
    2    2    1    1        0.4275608315
    2    2    1    3        0.0372295882
    2    2    1    6        0.0964245896
    2    2    1   10       -0.0183375792
    2    3    1    2       -0.0176932066
    2    3    1    9        0.0283444868
    2    4    1    7        0.0000742227
    2    4    1    8       -0.0418667799
    2    5    1    7       -0.0418667799
    2    5    1    8       -0.0000742227
    2    6    1    2        0.1152841051
    2    6    1    9        0.0524138954
    2    7    1    4        0.0000950309
    2    7    1    5       -0.0536040562
    2    8    1    4       -0.0536040562
    2    8    1    5       -0.0000950309
    2    9    1    1        0.0795981493
    2    9    1    3        0.0454570896
    2    9    1    6        0.0484554030
    2    9    1   10        0.0038999580
    2   10    1    2       -0.0231097356
    2   10    1    9       -0.0015146287
    2    1    2    1        0.2007763564
    2    1    2    3       -0.0176936885
    2    1    2    6        0.1152872949
    2    1    2   10       -0.0231108671
    2    2    2    2        0.4472026702
    2    2    2    9        0.0825656788
    2    3    2    1       -0.0176936885
    2    3    2    3        0.0306379152
    2    3    2    6       -0.0026231725
    2    3    2   10        0.0061566064
    2    4    2    4        0.0336854069
    2    5    2    5        0.0336854069
    2    6    2    1        0.1152872949
    2    6    2    3       -0.0026231725
    2    6    2    6        0.0913694398
    2    6    2   10       -0.0201825314
    2    7    2    7        0.0662421782
    2    8    2    8        0.0662421782
    2    9    2    2        0.0825656788
    2    9    2    9        0.0772272626
    2   10    2    1       -0.0231108671
    2   10    2    3        0.0061566064
    2   10    2    6       -0.0201825314
    2   10    2   10        0.0221986515
    2    1    3    2       -0.0176932066
    2    1    3    9        0.1044534914
    2    1    3   10        0.0000000001
    2    2    3    1        0.0372295882
    2    2    3    3        0.3610589351
    2    2    3    6       -0.0198938689
    2    2    3   10        0.0607135083
    2    3    3    2        0.0306379152
    2    3    3    9       -0.0024495840
    2    4    3    7        0.0000081276
    2    4    3    8       -0.0045845058
    2    5    3    7       -0.0045845058
    2    5    3    8       -0.0000081276
    2    6    3    2       -0.0026231725
    2    6    3    9        0.0522900179
    2    7    3    4        0.0000154135
    2    7    3    5       -0.0086942736
    2    8    3    4       -0.0086942736
    2    8    3    5       -0.0000154135
    2    9    3    1        0.0454818701
    2    9    3    3        0.0616027101
    2    9    3    6       -0.0022470038
    2    9    3   10        0.0501722376
    2   10    3    2        0.0061566064
    2   10    3    9        0.0055554860
    2    1    4    7        0.0002461591
    2    1    4    8       -0.1388508132
[...]
    9    7    4    1        0.0000016012
    9    7    4    3        0.0000179941
    9    7    4    6        0.0000147414
    9    7    4   10        0.0000088972
    9    8    4    1       -0.0009032071
    9    8    4    3       -0.0101499354
    9    8    4    6       -0.0083151615
    9    8    4   10       -0.0050186161
    9    9    4    4        0.3699658343
    9   10    4    7        0.0000524076
    9   10    4    8       -0.0295615154
    9    1    5    7       -0.0284160058
    9    1    5    8       -0.0000503768
    9    2    5    5        0.0467967998
    9    3    5    7       -0.0755635013
    9    3    5    8       -0.0001339613
    9    5    5    2       -0.0077732940
    9    5    5    9        0.0139876749
    9    6    5    7       -0.0838070655
    9    6    5    8       -0.0001485758
    9    7    5    1       -0.0009032071
    9    7    5    3       -0.0101499354
    9    7    5    6       -0.0083151615
    9    7    5   10       -0.0050186161
    9    8    5    1       -0.0000016012
    9    8    5    3       -0.0000179941
    9    8    5    6       -0.0000147414
    9    8    5   10       -0.0000088972
    9    9    5    5        0.3699658343
    9   10    5    7       -0.0295615154
    9   10    5    8       -0.0000524076
    9    1    6    2        0.0524138954
    9    1    6    9        0.0563437396
    9    2    6    1        0.0484554030
    9    2    6    3       -0.0022470038
    9    2    6    6        0.0928223902
    9    2    6   10       -0.0052542538
    9    3    6    2        0.0522900179
    9    3    6    9        0.0680447789
    9    3    6   10       -0.0000000001
    9    4    6    7        0.0000116834
    9    4    6    8       -0.0065902331
    9    5    6    7       -0.0065902331
    9    5    6    8       -0.0000116834
    9    6    6    2        0.0837664609
    9    6    6    9        0.1016650578
    9    6    6   10       -0.0000000002
    9    7    6    4        0.0000147414
    9    7    6    5       -0.0083151615
    9    8    6    4       -0.0083151615
    9    8    6    5       -0.0000147414
    9    9    6    1        0.0929138942
    9    9    6    3       -0.0163360602
    9    9    6    6        0.4316911419
    9    9    6   10       -0.0050707429
    9   10    6    2        0.0097014992
    9   10    6    9        0.0244666700
    9    1    7    4        0.0000503744
    9    1    7    5       -0.0284146609
    9    2    7    7        0.0804713153
    9    3    7    4        0.0001339613
    9    3    7    5       -0.0755635013
    9    4    7    1       -0.0000084699
    9    4    7    3        0.0000137428
    9    4    7    6        0.0000116834
    9    4    7   10        0.0000117182
    9    5    7    1        0.0047775968
    9    5    7    3       -0.0077519051
    9    5    7    6       -0.0065902331
    9    5    7   10       -0.0066098880
    9    6    7    4        0.0001485758
    9    6    7    5       -0.0838070655
    9    7    7    2        0.0067846442
    9    7    7    9        0.0188851295
    9    9    7    7        0.4401100681
    9   10    7    4        0.0000524076
    9   10    7    5       -0.0295615154
    9    1    8    4       -0.0284146609
    9    1    8    5       -0.0000503744
    9    2    8    8        0.0804713153
    9    3    8    4       -0.0755635013
    9    3    8    5       -0.0001339613
    9    4    8    1        0.0047775968
    9    4    8    3       -0.0077519051
    9    4    8    6       -0.0065902331
    9    4    8   10       -0.0066098880
    9    5    8    1        0.0000084699
    9    5    8    3       -0.0000137428
    9    5    8    6       -0.0000116834
    9    5    8   10       -0.0000117182
    9    6    8    4       -0.0838070655
    9    6    8    5       -0.0001485758
    9    8    8    2        0.0067846442
    9    8    8    9        0.0188851295
    9    9    8    8        0.4401100681
    9   10    8    4       -0.0295615154
    9   10    8    5       -0.0000524076
    9    1    9    1        0.0614932245
    9    1    9    3        0.0315965273
    9    1    9    6        0.0563452338
    9    1    9   10        0.0300345409
    9    2    9    2        0.0772272626
    9    2    9    9        0.1172970391
    9    3    9    1        0.0315965273
    9    3    9    3        0.0720579104
    9    3    9    6        0.0680447789
    9    3    9   10        0.0319809138
    9    4    9    4        0.0139876749
    9    5    9    5        0.0139876749
    9    6    9    1        0.0563452338
    9    6    9    3        0.0680447789
    9    6    9    6        0.1016650578
    9    6    9   10        0.0244666700
    9    7    9    7        0.0188851295
    9    8    9    8        0.0188851295
    9    9    9    2        0.1172970391
    9    9    9    9        0.4927376592
    9   10    9    1        0.0300345409
    9   10    9    3        0.0319809138
    9   10    9    6        0.0244666700
    9   10    9   10        0.0466163770
    9    1   10    2       -0.0015146287
    9    1   10    9        0.0300332948
    9    2   10    1        0.0038999580
    9    2   10    3        0.0501722376
    9    2   10    6       -0.0052542538
    9    2   10   10        0.0772529194
    9    3   10    2        0.0055554860
    9    3   10    3        0.0000000001
    9    3   10    6       -0.0000000001
    9    3   10    9        0.0319809138
    9    4   10    7        0.0000117182
    9    4   10    8       -0.0066098880
    9    5   10    7       -0.0066098880
    9    5   10    8       -0.0000117182
    9    6   10    2       -0.0138509738
    9    6   10    6       -0.0000000002
    9    6   10    9        0.0244666700
    9    7   10    4        0.0000088972
    9    7   10    5       -0.0050186161
    9    8   10    4       -0.0050186161
    9    8   10    5       -0.0000088972
    9    9   10    1        0.0041729551
    9    9   10    3        0.0944308116
    9    9   10    6       -0.0050707429
    9    9   10   10        0.4211195240
    9   10   10    2        0.0118362941
    9   10   10    9        0.0466163770
   10    1    1    1       -0.0119414462
   10    1    1    3        0.0137993263
   10    1    1    6       -0.0124646051
   10    1    1   10        0.0252693847
   10    2    1    2       -0.0231108671
   10    2    1    9       -0.0015015496
   10    3    1    1        0.0689165356
   10    3    1    2        0.0000000001
   10    3    1    3        0.0558410129
   10    3    1    6        0.0121461374
   10    3    1   10        0.0162400817
   10    4    1    4       -0.0135510884
   10    5    1    5       -0.0135510884
   10    6    1    1       -0.0108410428
   10    6    1    2       -0.0000000002
   10    6    1    3        0.0123142165
   10    6    1    6       -0.0244450373
   10    6    1   10        0.0070195118
   10    7    1    7       -0.0129525835
   10    8    1    8       -0.0129525835
   10    9    1    2        0.0251883493
   10    9    1    9        0.0300345409
   10   10    1    1        0.3876288774
   10   10    1    3        0.0715928071
   10   10    1    6        0.0458933221
   10   10    1   10        0.0196460426
   10    1    2    2       -0.0183375792
   10    1    2    9        0.0039184417
   10    2    2    1       -0.0231097356
   10    2    2    3        0.0061566064
   10    2    2    6       -0.0201825314
   10    2    2   10        0.0221986515
   10    3    2    1        0.0000000001
   10    3    2    2        0.0607135083
   10    3    2    9        0.0501722376
   10    4    2    7       -0.0000248388
   10    4    2    8        0.0140108217
   10    5    2    7        0.0140108217
   10    5    2    8        0.0000248388
   10    6    2    1       -0.0000000002
   10    6    2    2       -0.0197542514
   10    6    2    6       -0.0000000001
   10    6    2    9       -0.0052542538
   10    7    2    4       -0.0000184318
   10    7    2    5        0.0103968269
   10    8    2    4        0.0103968269
   10    8    2    5        0.0000184318
   10    9    2    1        0.0251937540
   10    9    2    3        0.0248905874
   10    9    2    6        0.0097014992
   10    9    2   10        0.0118362941
   10   10    2    2        0.3858634569
   10   10    2    9        0.0772529194
   10    1    3    1        0.0136129509
   10    1    3    3        0.0200524196
   10    1    3    6       -0.0008539619
   10    1    3   10        0.0162400817
   10    2    3    2        0.0061566064
   10    2    3    9        0.0055554860
   10    3    3    1        0.0558397320
   10    3    3    3        0.0857094837
   10    3    3    6       -0.0164114525
   10    3    3    9        0.0000000001
   10    3    3   10        0.0719984632
   10    4    3    4       -0.0004154027
   10    5    3    5       -0.0004154027
   10    6    3    1        0.0123140374
   10    6    3    3        0.0054194698
   10    6    3    6       -0.0028880889
   10    6    3    9       -0.0000000001
   10    6    3   10        0.0061308036
   10    7    3    7        0.0045125691
   10    8    3    8        0.0045125691
   10    9    3    2        0.0248905874
   10    9    3    9        0.0319809138
   10   10    3    1        0.0715928071
   10   10    3    3        0.3915791347
   10   10    3    6       -0.0319732684
   10   10    3   10        0.0914873448
   10    1    4    4       -0.0079330498
   10    2    4    7       -0.0000252448
   10    2    4    8        0.0142398485
   10    3    4    4        0.0597287435
   10    3    4    8       -0.0000000001
   10    4    4    1       -0.0135513485
   10    4    4    3       -0.0004154027
   10    4    4    6        0.0082305995
   10    4    4   10        0.0109041702
   10    6    4    4        0.0091624127
   10    6    4    8        0.0000000002
   10    7    4    2       -0.0000184318
   10    7    4    9        0.0000117182
   10    8    4    2        0.0103968269
   10    8    4    9       -0.0066098880
   10    9    4    7        0.0000524076
   10    9    4    8       -0.0295615154
   10   10    4    4        0.3509989036
   10    1    5    5       -0.0079330498
   10    2    5    7        0.0142398485
   10    2    5    8        0.0000252448
   10    3    5    5        0.0597287435
   10    3    5    7       -0.0000000001
   10    5    5    1       -0.0135513485
   10    5    5    3       -0.0004154027
   10    5    5    6        0.0082305995
   10    5    5   10        0.0109041702
   10    6    5    5        0.0091624127
   10    6    5    7        0.0000000002
   10    7    5    2        0.0103968269
   10    7    5    9       -0.0066098880
   10    8    5    2        0.0000184318
   10    8    5    9       -0.0000117182
   10    9    5    7       -0.0295615154
   10    9    5    8       -0.0000524076
   10   10    5    5        0.3509989036
   10    1    6    1       -0.0123030128
   10    1    6    3       -0.0008561987
   10    1    6    6       -0.0181932286
   10    1    6   10        0.0070195118
   10    2    6    2       -0.0201825314
   10    2    6    9       -0.0138509738
   10    3    6    1        0.0121437215
   10    3    6    3       -0.0164114525
   10    3    6    6        0.0690809736
   10    3    6   10        0.0061308036
   10    4    6    4        0.0082305995
   10    5    6    5        0.0082305995
   10    6    6    1       -0.0244437805
   10    6    6    2       -0.0000000001
   10    6    6    3       -0.0028880889
   10    6    6    6       -0.0099144506
   10    6    6    9       -0.0000000002
   10    6    6   10        0.0180889927
   10    7    6    7       -0.0033877362
   10    8    6    8       -0.0033877362
   10    9    6    2        0.0097014992
   10    9    6    9        0.0244666700
   10   10    6    1        0.0458933221
   10   10    6    3       -0.0319732684
   10   10    6    6        0.3767023488
   10   10    6   10        0.0037314496
   10    1    7    7       -0.0136450473
   10    2    7    4       -0.0000252448
   10    2    7    5        0.0142398485
   10    3    7    5       -0.0000000001
   10    3    7    7        0.0774178340
   10    4    7    2       -0.0000248388
   10    4    7    9        0.0000088972
   10    5    7    2        0.0140108217
   10    5    7    9       -0.0050186161
   10    6    7    5        0.0000000002
   10    6    7    7       -0.0036878849
   10    7    7    1       -0.0129536181
   10    7    7    3        0.0045125691
   10    7    7    6       -0.0033877362
   10    7    7   10        0.0115360429
   10    9    7    4        0.0000524076
   10    9    7    5       -0.0295615154
   10   10    7    7        0.3946831761
   10    1    8    8       -0.0136450473
   10    2    8    4        0.0142398485
   10    2    8    5        0.0000252448
   10    3    8    4       -0.0000000001
   10    3    8    8        0.0774178340
   10    4    8    2        0.0140108217
   10    4    8    9       -0.0050186161
   10    5    8    2        0.0000248388
   10    5    8    9       -0.0000088972
   10    6    8    4        0.0000000002
   10    6    8    8       -0.0036878849
   10    8    8    1       -0.0129536181
   10    8    8    3        0.0045125691
   10    8    8    6       -0.0033877362
   10    8    8   10        0.0115360429
   10    9    8    4       -0.0295615154
   10    9    8    5       -0.0000524076
   10   10    8    8        0.3946831761
   10    1    9    2        0.0038999580
   10    1    9    9        0.0041729551
   10    2    9    1       -0.0015146287
   10    2    9    3        0.0055554860
   10    2    9    6       -0.0138509738
   10    2    9   10        0.0118362941
   10    3    9    2        0.0501722376
   10    3    9    3        0.0000000001
   10    3    9    9        0.0944308116
   10    4    9    7        0.0000088972
   10    4    9    8       -0.0050186161
   10    5    9    7       -0.0050186161
   10    5    9    8       -0.0000088972
   10    6    9    2       -0.0052542538
   10    6    9    3       -0.0000000001
   10    6    9    6       -0.0000000002
   10    6    9    9       -0.0050707429
   10    7    9    4        0.0000117182
   10    7    9    5       -0.0066098880
   10    8    9    4       -0.0066098880
   10    8    9    5       -0.0000117182
   10    9    9    1        0.0300332948
   10    9    9    3        0.0319809138
   10    9    9    6        0.0244666700
   10    9    9   10        0.0466163770
   10   10    9    2        0.0772529194
   10   10    9    9        0.4211195240
   10    1   10    1        0.0248653278
   10    1   10    3        0.0162373277
   10    1   10    6        0.0070185615
   10    1   10   10        0.0196460426
   10    2   10    2        0.0221986515
   10    2   10    9        0.0118362941
   10    3   10    1        0.0162373277
   10    3   10    3        0.0719984632
   10    3   10    6        0.0061308036
   10    3   10   10        0.0914873448
   10    4   10    4        0.0109041702
   10    5   10    5        0.0109041702
   10    6   10    1        0.0070185615
   10    6   10    3        0.0061308036
   10    6   10    6        0.0180889927
   10    6   10   10        0.0037314496
   10    7   10    7        0.0115360429
   10    8   10    8        0.0115360429
   10    9   10    2        0.0118362941
   10    9   10    9        0.0466163770
   10   10   10    1        0.0196460426
   10   10   10    3        0.0914873448
   10   10   10    6        0.0037314496
   10   10   10   10        0.4131742100
 end_two_electron_integrals

 Parallel integral file used      17 records with       0 large values


 Task  times  cpu:       34.1s     wall:       36.8s


                                NWChem Input Module
                                -------------------


 Summary of allocated global arrays
-----------------------------------
  No active global arrays


MA_summarize_allocated_blocks: starting scan ...
MA_summarize_allocated_blocks: scan completed: 0 heap blocks, 0 stack blocks
MA usage statistics:

	allocation statistics:
					      heap	     stack
					      ----	     -----
	current number of blocks	         0	         0
	maximum number of blocks	        18	        42
	current total bytes		         0	         0
	maximum total bytes		  51983048	9994007128
	maximum total K-bytes		     51984	   9994008
	maximum total M-bytes		        52	      9995


                                     CITATION
                                     --------
                Please cite the following reference when publishing
                           results obtained with NWChem:

          E. Apra, E. J. Bylaska, W. A. de Jong, N. Govind, K. Kowalski,
       T. P. Straatsma, M. Valiev, H. J. J. van Dam, Y. Alexeev, J. Anchell,
       V. Anisimov, F. W. Aquino, R. Atta-Fynn, J. Autschbach, N. P. Bauman,
     J. C. Becca, D. E. Bernholdt, K. Bhaskaran-Nair, S. Bogatko, P. Borowski,
         J. Boschen, J. Brabec, A. Bruner, E. Cauet, Y. Chen, G. N. Chuev,
      C. J. Cramer, J. Daily, M. J. O. Deegan, T. H. Dunning Jr., M. Dupuis,
   K. G. Dyall, G. I. Fann, S. A. Fischer, A. Fonari, H. Fruchtl, L. Gagliardi,
      J. Garza, N. Gawande, S. Ghosh, K. Glaesemann, A. W. Gotz, J. Hammond,
       V. Helms, E. D. Hermes, K. Hirao, S. Hirata, M. Jacquelin, L. Jensen,
   B. G. Johnson, H. Jonsson, R. A. Kendall, M. Klemm, R. Kobayashi, V. Konkov,
      S. Krishnamoorthy, M. Krishnan, Z. Lin, R. D. Lins, R. J. Littlefield,
      A. J. Logsdail, K. Lopata, W. Ma, A. V. Marenich, J. Martin del Campo,
   D. Mejia-Rodriguez, J. E. Moore, J. M. Mullin, T. Nakajima, D. R. Nascimento,
    J. A. Nichols, P. J. Nichols, J. Nieplocha, A. Otero-de-la-Roza, B. Palmer,
    A. Panyala, T. Pirojsirikul, B. Peng, R. Peverati, J. Pittner, L. Pollack,
   R. M. Richard, P. Sadayappan, G. C. Schatz, W. A. Shelton, D. W. Silverstein,
   D. M. A. Smith, T. A. Soares, D. Song, M. Swart, H. L. Taylor, G. S. Thomas,
            V. Tipparaju, D. G. Truhlar, K. Tsemekhman, T. Van Voorhis,
      A. Vazquez-Mayagoitia, P. Verma, O. Villa, A. Vishnu, K. D. Vogiatzis,
        D. Wang, J. H. Weare, M. J. Williamson, T. L. Windus, K. Wolinski,
        A. T. Wong, Q. Wu, C. Yang, Q. Yu, M. Zacharias, Z. Zhang, Y. Zhao,
                                and R. J. Harrison
                        "NWChem: Past, present, and future
                         J. Chem. Phys. 152, 184102 (2020)
                               doi:10.1063/5.0004997

                                      AUTHORS
                                      -------
  E. Apra, E. J. Bylaska, N. Govind, K. Kowalski, M. Valiev, D. Mejia-Rodriguez,
       A. Kunitsa, N. P. Bauman, A. Panyala, W. A. de Jong, T. P. Straatsma,
        H. J. J. van Dam, D. Wang, T. L. Windus, J. Hammond, J. Autschbach,
    K. Bhaskaran-Nair, J. Brabec, K. Lopata, S. A. Fischer, S. Krishnamoorthy,
     M. Jacquelin, W. Ma, M. Klemm, O. Villa, Y. Chen, V. Anisimov, F. Aquino,
    S. Hirata, M. T. Hackler, Eric Hermes, L. Jensen, J. E. Moore, J. C. Becca,
      V. Konjkov, T. Risthaus, M. Malagoli, A. Marenich, A. Otero-de-la-Roza,
        J. Mullin, P. Nichols, R. Peverati, J. Pittner, Y. Zhao, P.-D. Fan,
        A. Fonari, M. J. Williamson, R. J. Harrison, J. R. Rehr, M. Dupuis,
     D. Silverstein, D. M. A. Smith, J. Nieplocha, V. Tipparaju, M. Krishnan,
     B. E. Van Kuiken, A. Vazquez-Mayagoitia, M. Swart, Q. Wu, T. Van Voorhis,
     A. A. Auer, M. Nooijen, L. D. Crosby, E. Brown, G. Cisneros, G. I. Fann,
   H. Fruchtl, J. Garza, K. Hirao, R. A. Kendall, J. A. Nichols, K. Tsemekhman,
    K. Wolinski, J. Anchell, D. E. Bernholdt, P. Borowski, T. Clark, D. Clerc,
   H. Dachsel, M. J. O. Deegan, K. Dyall, D. Elwood, E. Glendening, M. Gutowski,
   A. C. Hess, J. Jaffe, B. G. Johnson, J. Ju, R. Kobayashi, R. Kutteh, Z. Lin,
   R. Littlefield, X. Long, B. Meng, T. Nakajima, S. Niu, L. Pollack, M. Rosing,
   K. Glaesemann, G. Sandrone, M. Stave, H. Taylor, G. Thomas, J. H. van Lenthe,
                               A. T. Wong, Z. Zhang.

 Total times  cpu:       37.2s     wall:       40.0s
