 argument  1 = input.nw
  NWChem w/ OpenMP: maximum threads =    1



============================== echo of input deck ==============================
 echo
 start H2
 title "H2"

 memory total 24 gb

 geometry units bohr
 symmetry c1
        H  0.00000000  0.00000000  0.00000000
        H  0.00000000  6.40  0.00000000
 end

 basis
   * library cc-pVQZ
 end

 mcscf
   active  10
   actelec 2
   multiplicity 1
   maxiter 40
   vectors input H2.mos
   vectors output H2.mos
 end

 task mcscf

 scf
   vectors input H2.mos
   vectors output H2-6.40.mos
   noscf
 end

 tce
   2eorb
   2emet 13
   ccsd
   maxiter 300
   lshift 0.8
 end

# set tce:print_integrals T
# set tce:qorb 10
# set tce:qela 1
# set tce:qelb 1

 set tce:qducc T
 set tce:nactv 9
 set tce:nonhf T
 set tce:ducc_model 3

 set tce:printtol 0.02

 task tce
================================================================================


                                         
                                         


             Northwest Computational Chemistry Package (NWChem) 7.0.1
             --------------------------------------------------------


                    Environmental Molecular Sciences Laboratory
                       Pacific Northwest National Laboratory
                                Richland, WA 99352

                              Copyright (c) 1994-2020
                       Pacific Northwest National Laboratory
                            Battelle Memorial Institute

             NWChem is an open-source computational chemistry package
                        distributed under the terms of the
                      Educational Community License (ECL) 2.0
             A copy of the license is included with this distribution
                              in the LICENSE.TXT file

                                  ACKNOWLEDGMENT
                                  --------------

            This software and its documentation were developed at the
            EMSL at Pacific Northwest National Laboratory, a multiprogram
            national laboratory, operated for the U.S. Department of Energy
            by Battelle under Contract Number DE-AC05-76RL01830. Support
            for this work was provided by the Department of Energy Office
            of Biological and Environmental Research, Office of Basic
            Energy Sciences, and the Office of Advanced Scientific Computing.


           Job information
           ---------------

    hostname        = WE46210
    program         = /home/baum612/code/nwchem/bin/LINUX64/nwchem
    date            = Fri Nov 10 23:02:21 2023

    compiled        = Mon_Nov_06_10:06:57_2023
    source          = /home/baum612/code/nwchem
    nwchem branch   = 7.0.0
    nwchem revision = nwchem_on_git-4191-g39d87d64de
    ga revision     = 5.8.1
    use scalapack   = F
    input           = input.nw
    prefix          = H2.
    data base       = ./H2.db
    status          = startup
    nproc           =        1
    time left       =     -1s



           Memory information
           ------------------

    heap     =  805306362 doubles =   6144.0 Mbytes
    stack    =  805306367 doubles =   6144.0 Mbytes
    global   = 1610612736 doubles =  12288.0 Mbytes (distinct from heap & stack)
    total    = 3221225465 doubles =  24576.0 Mbytes
    verify   = yes
    hardfail = no 


           Directory information
           ---------------------

  0 permanent = .
  0 scratch   = .




                                NWChem Input Module
                                -------------------


                                        H2
                                        --
 Turning off AUTOSYM since
 SYMMETRY directive was detected!


          ------
          auto-z
          ------
     1 autoz failed with cvr_scaling = 1.2 changing to 1.3
     2 autoz failed with cvr_scaling = 1.3 changing to 1.4
     3 autoz failed with cvr_scaling = 1.4 changing to 1.5
     4 autoz failed with cvr_scaling = 1.5 changing to 1.6
     5 autoz failed with cvr_scaling = 1.6 changing to 1.7

 AUTOZ failed to generate good internal coordinates.
 Cartesian coordinates will be used in optimizations.



                             Geometry "geometry" -> ""
                             -------------------------

 Output coordinates in a.u. (scale by  1.000000000 to convert to a.u.)

  No.       Tag          Charge          X              Y              Z
 ---- ---------------- ---------- -------------- -------------- --------------
    1 H                    1.0000     0.00000000    -3.20000000     0.00000000
    2 H                    1.0000     0.00000000     3.20000000     0.00000000

      Atomic Mass 
      ----------- 

      H                  1.007825


 Effective nuclear repulsion energy (a.u.)       0.1562500000

            Nuclear Dipole moment (a.u.) 
            ----------------------------
        X                 Y               Z
 ---------------- ---------------- ----------------
     0.0000000000     0.0000000000     0.0000000000


            XYZ format geometry
            -------------------
     2
 geometry
 H                     0.00000000    -1.69336720     0.00000000
 H                     0.00000000     1.69336720     0.00000000



 Summary of "ao basis" -> "" (cartesian)
 ------------------------------------------------------------------------------
       Tag                 Description            Shells   Functions and Types
 ---------------- ------------------------------  ------  ---------------------
 *                          cc-pVQZ                   on all atoms 


                      Basis "ao basis" -> "ao basis" (cartesian)
                      -----
  H (Hydrogen)
  ------------
            Exponent  Coefficients 
       -------------- ---------------------------------------------------------
  1 S  8.26400000E+01  0.002006
  1 S  1.24100000E+01  0.015343
  1 S  2.82400000E+00  0.075579

  2 S  7.97700000E-01  1.000000

  3 S  2.58100000E-01  1.000000

  4 S  8.98900000E-02  1.000000

  5 P  2.29200000E+00  1.000000

  6 P  8.38000000E-01  1.000000

  7 P  2.92000000E-01  1.000000

  8 D  2.06200000E+00  1.000000

  9 D  6.62000000E-01  1.000000

 10 F  1.39700000E+00  1.000000



 Summary of "ao basis" -> "ao basis" (cartesian)
 ------------------------------------------------------------------------------
       Tag                 Description            Shells   Functions and Types
 ---------------- ------------------------------  ------  ---------------------
 H                          cc-pVQZ                 10       35   4s3p2d1f



                            NWChem Direct MCSCF Module
                            --------------------------


                                        H2


     -----------------------------------
       Basis functions:             70
       Inactive shells:              0
       Active shells:               10
       Active electrons:             2
       Symmetry:                    a       
       Multiplicity:                 1
       Orbital rotations:          600
     -----------------------------------

     -----------------------------------
       E2 extrapolation:             F
       Conjugacy:                    T
       Micro CI relax:               T
       Canonical orbitals:           T
       Maximum iterations:          40
       Converge threshold:    1.00E-04
       Conjugacy resets:            20
       Initial levelshift:        0.10
     -----------------------------------

 Loading old vectors from job with title :

H2


   input molecular orbitals = ./H2.mos
  output molecular orbtials = ./H2.mos

       No. of determinants:           100


  Starting Orbital Energies
    -0.269219    -0.230669    -0.000050    -0.000014    -0.000014    -0.000000
    -0.000000    -0.000000    -0.000000    -0.000000     0.424120     0.635924
     0.830110     1.139983     1.139983     1.763654     1.825278     1.825278
     1.876961     2.044893     2.044893     2.057522     2.057522     2.090225
     2.090225     2.090269     2.090269     2.115541     2.882758     2.964418
     4.374041     4.380041     4.380041     4.436659     4.436659     4.530822
     5.943749     6.055595     6.055595     6.060630     6.069357     6.069357
     6.070356     6.070356     6.070356     6.070356     6.070382     6.070382
     6.070383     6.070383     8.126774     8.134694     8.134694     8.137921
     8.141569     8.141569     8.142210     8.142210     8.142227     8.142227
     9.640401     9.665098     9.688468     9.714946     9.714946     9.716439
     9.716439     9.777966    22.246231    22.632379

  Orbital Symmetry Irreps
a    a    a    a    a    a    a    a    a    a    a    a    a    a    a   
a    a    a    a    a    a    a    a    a    a    a    a    a    a    a   
a    a    a    a    a    a    a    a    a    a    a    a    a    a    a   
a    a    a    a    a    a    a    a    a    a    a    a    a    a    a   
a    a    a    a    a    a    a    a    a    a   

 Integral file          = ./H2.aoints.0
 Record size in doubles =  65536        No. of integs per rec  =  43688
 Max. records in memory =     99        Max. records in file   = 280188
 No. of bits per label  =      8        No. of bits per value  =     64


 #quartets = 1.670D+04 #integrals = 3.839D+05 #direct =  0.0% #cached =100.0%




          %%%%% MacroIteration   1 %%%%%


          Number of sigma calls:       14
                       o<<<<< (aa):             0.00
                       o<<<<< (bb):             0.00
                       o<<<<< (ab):             0.01
                       o<<<<< (total)           0.01
                       o<<<<< (aa) ff           0.00
                       o<<<<< (aa) gop          0.00
                       o<<<<< (aa) dot          0.00
                       o<<<<< (ab) str          0.00
                       o<<<<< (ab) gath         0.00
                       o<<<<< (ab) dotab        0.00
                       o<<<<< (ab) scat         0.00
                       o<<<<< (ab) sync         0.00
                       o<<<<< Density           0.00
                       o<<<<< Density one       0.00
                       o<<<<< Density two       0.00
                       o<<<<< Density ab        0.00
                       o<<<<< Spin adapt        0.00
                       o<<<<< Symm adapt        0.00

                       o<<<<< (ab) max sync:      0.00

           >>>| Valence CI:             -1.156518187703
           >>>| MCSCF energy:           -1.000268187703
           >>>| Gradient norm:          0.360064184D-03
     --- Warning:  480 Hessian diagonals < 0.05 ---

                              ----- Line search ------

        step       energy         lsg     num-lsg   num-lsh   lsrat    time
      ------- ---------------- --------- --------- --------- ------- --------
       0.0000      -1.00026819 -2.68D-08  0.00D+00  0.00D+00 0.0D+00      0.6

          Number of sigma calls:        9
                       o<<<<< (aa):             0.00
                       o<<<<< (bb):             0.00
                       o<<<<< (ab):             0.00
                       o<<<<< (total)           0.00
                       o<<<<< (aa) ff           0.00
                       o<<<<< (aa) gop          0.00
                       o<<<<< (aa) dot          0.00
                       o<<<<< (ab) str          0.00
                       o<<<<< (ab) gath         0.00
                       o<<<<< (ab) dotab        0.00
                       o<<<<< (ab) scat         0.00
                       o<<<<< (ab) sync         0.00
                       o<<<<< Density           0.00
                       o<<<<< Density one       0.00
                       o<<<<< Density two       0.00
                       o<<<<< Density ab        0.00
                       o<<<<< Spin adapt        0.00
                       o<<<<< Symm adapt        0.00

                       o<<<<< (ab) max sync:      0.00
       1.0000      -1.00026820 -6.08D-09 -6.09D-09  2.07D-08 2.3D-01      0.6

          Number of sigma calls:        8
                       o<<<<< (aa):             0.00
                       o<<<<< (bb):             0.00
                       o<<<<< (ab):             0.01
                       o<<<<< (total)           0.01
                       o<<<<< (aa) ff           0.00
                       o<<<<< (aa) gop          0.00
                       o<<<<< (aa) dot          0.00
                       o<<<<< (ab) str          0.00
                       o<<<<< (ab) gath         0.00
                       o<<<<< (ab) dotab        0.00
                       o<<<<< (ab) scat         0.00
                       o<<<<< (ab) sync         0.00
                       o<<<<< Density           0.00
                       o<<<<< Density one       0.00
                       o<<<<< Density two       0.00
                       o<<<<< Density ab        0.00
                       o<<<<< Spin adapt        0.00
                       o<<<<< Symm adapt        0.00

                       o<<<<< (ab) max sync:      0.00
       1.2939      -1.00026821  6.05D-12  6.02D-12  2.07D-08 2.3D-04      0.7
     --- Orbitals canonicalized ---



          %%%%% MacroIteration   2 %%%%%


          Number of sigma calls:       14
                       o<<<<< (aa):             0.00
                       o<<<<< (bb):             0.00
                       o<<<<< (ab):             0.02
                       o<<<<< (total)           0.02
                       o<<<<< (aa) ff           0.00
                       o<<<<< (aa) gop          0.00
                       o<<<<< (aa) dot          0.00
                       o<<<<< (ab) str          0.00
                       o<<<<< (ab) gath         0.00
                       o<<<<< (ab) dotab        0.00
                       o<<<<< (ab) scat         0.00
                       o<<<<< (ab) sync         0.00
                       o<<<<< Density           0.00
                       o<<<<< Density one       0.00
                       o<<<<< Density two       0.00
                       o<<<<< Density ab        0.00
                       o<<<<< Spin adapt        0.00
                       o<<<<< Symm adapt        0.00

                       o<<<<< (ab) max sync:      0.00

           >>>| Valence CI:             -1.156518205028
           >>>| MCSCF energy:           -1.000268205028
           >>>| Gradient norm:          0.542463226D-04




     ==============================
            MCSCF Converged
     ==============================



          Canonical Eigenvalues

              1      
    1   -0.2685
    2   -0.2314
    3   -0.0000
    4   -0.0000
    5   -0.0000
    6   -0.0000
    7   -0.0000
    8   -0.0000
    9   -0.0000
   10   -0.0000
   11    0.4234
   12    0.6338
   13    0.8309
   14    1.1391
   15    1.1391
   16    1.7638
   17    1.8260
   18    1.8260
   19    1.8795
   20    2.0451
   21    2.0451
   22    2.0571
   23    2.0571
   24    2.0902
   25    2.0902
   26    2.0903
   27    2.0903
   28    2.1108
   29    2.8849
   30    2.9623
   31    4.3735
   32    4.3793
   33    4.3793
   34    4.4373
   35    4.4373
   36    4.5274
   37    5.9438
   38    6.0556
   39    6.0556
   40    6.0607
   41    6.0694
   42    6.0694
   43    6.0704
   44    6.0704
   45    6.0704
   46    6.0704
   47    6.0704
   48    6.0704
   49    6.0704
   50    6.0704
   51    8.1268
   52    8.1347
   53    8.1347
   54    8.1374
   55    8.1416
   56    8.1416
   57    8.1423
   58    8.1423
   59    8.1423
   60    8.1423
   61    9.6418
   62    9.6639
   63    9.6879
   64    9.7153
   65    9.7153
   66    9.7161
   67    9.7161
   68    9.7767
   69   22.2573
   70   22.6210


          Converged CI vector

   Index           Coefficient          Config. Occupation
         1         -0.73744846          1  1
        12          0.67535360          2  2

          Number of sigma calls:        1
                       o<<<<< (aa):             0.00
                       o<<<<< (bb):             0.00
                       o<<<<< (ab):             0.00
                       o<<<<< (total)           0.00
                       o<<<<< (aa) ff           0.00
                       o<<<<< (aa) gop          0.00
                       o<<<<< (aa) dot          0.00
                       o<<<<< (ab) str          0.00
                       o<<<<< (ab) gath         0.00
                       o<<<<< (ab) dotab        0.00
                       o<<<<< (ab) scat         0.00
                       o<<<<< (ab) sync         0.00
                       o<<<<< Density           0.00
                       o<<<<< Density one       0.00
                       o<<<<< Density two       0.00
                       o<<<<< Density ab        0.00
                       o<<<<< Spin adapt        0.00
                       o<<<<< Symm adapt        0.00

                       o<<<<< (ab) max sync:      0.00



          Natural orbital occupation numbers

              1      
    1    1.0877
    2    0.9122
    3    0.0001
    4    0.0000
    5    0.0000
    6    0.0000
    7    0.0000
    8    0.0000
    9    0.0000
   10    0.0000


          Number of sigma calls:       14
                       o<<<<< (aa):             0.00
                       o<<<<< (bb):             0.00
                       o<<<<< (ab):             0.01
                       o<<<<< (total)           0.01
                       o<<<<< (aa) ff           0.00
                       o<<<<< (aa) gop          0.00
                       o<<<<< (aa) dot          0.00
                       o<<<<< (ab) str          0.00
                       o<<<<< (ab) gath         0.00
                       o<<<<< (ab) dotab        0.00
                       o<<<<< (ab) scat         0.00
                       o<<<<< (ab) sync         0.00
                       o<<<<< Density           0.00
                       o<<<<< Density one       0.00
                       o<<<<< Density two       0.00
                       o<<<<< Density ab        0.00
                       o<<<<< Spin adapt        0.00
                       o<<<<< Symm adapt        0.00

                       o<<<<< (ab) max sync:      0.00


       Final MCSCF results 
       ------------------- 

       Total MCSCF energy =     -1.000268205028
            Gradient norm =      5.4D-05

    CPU time for solution =      1.1s
   Wall time for solution =      1.6s



                        Analysis of MCSCF natural orbitals
                        ----------------------------------

 Vector    1  Occ=1.087661D+00  E=-2.684838D-01  Symmetry=a
              MO Center=  6.4D-15,  3.7D-12, -4.1D-15, r^2= 3.7D+00
   Bfn.  Coefficient  Atom+Function         Bfn.  Coefficient  Atom+Function  
  ----- ------------  ---------------      ----- ------------  ---------------
     3      0.340787  1 H  s                 38      0.340787  2 H  s          
     4      0.209856  1 H  s                 39      0.209856  2 H  s          
     2      0.176749  1 H  s                 37      0.176749  2 H  s          

 Vector    2  Occ=9.122050D-01  E=-2.314071D-01  Symmetry=a
              MO Center=  2.6D-14, -3.3D-12, -1.8D-14, r^2= 3.8D+00
   Bfn.  Coefficient  Atom+Function         Bfn.  Coefficient  Atom+Function  
  ----- ------------  ---------------      ----- ------------  ---------------
     3      0.359672  1 H  s                 38     -0.359672  2 H  s          
     4      0.209716  1 H  s                 39     -0.209716  2 H  s          
     2      0.183487  1 H  s                 37     -0.183487  2 H  s          

 Vector    3  Occ=8.744302D-05  E=-4.675042D-05  Symmetry=a
              MO Center=  1.2D-13,  3.4D-09, -7.8D-14, r^2= 3.9D+00
   Bfn.  Coefficient  Atom+Function         Bfn.  Coefficient  Atom+Function  
  ----- ------------  ---------------      ----- ------------  ---------------
     9      1.779512  1 H  py                44     -1.779512  2 H  py         
    12     -0.995431  1 H  py                47      0.995431  2 H  py         
    32     -0.753203  1 H  fyyy              67      0.753203  2 H  fyyy       
    27     -0.735102  1 H  fxxy              34     -0.735102  1 H  fyzz       
    62      0.735102  2 H  fxxy              69      0.735102  2 H  fyzz       

 Vector    4  Occ=2.293342D-05  E=-1.312239D-05  Symmetry=a
              MO Center=  4.3D-13, -2.0D-11, -5.2D-13, r^2= 3.9D+00
   Bfn.  Coefficient  Atom+Function         Bfn.  Coefficient  Atom+Function  
  ----- ------------  ---------------      ----- ------------  ---------------
    10      1.210927  1 H  pz                45      1.210927  2 H  pz         
     8     -1.010106  1 H  px                43     -1.010106  2 H  px         
    13     -0.734979  1 H  pz                48     -0.734979  2 H  pz         
    11      0.613090  1 H  px                46      0.613090  2 H  px         
    33     -0.533361  1 H  fyyz              68     -0.533361  2 H  fyyz       

 Vector    5  Occ=2.293342D-05  E=-1.312239D-05  Symmetry=a
              MO Center=  5.6D-15, -1.9D-11,  6.2D-15, r^2= 3.9D+00
   Bfn.  Coefficient  Atom+Function         Bfn.  Coefficient  Atom+Function  
  ----- ------------  ---------------      ----- ------------  ---------------
     8      1.210927  1 H  px                43      1.210927  2 H  px         
    10      1.010106  1 H  pz                45      1.010106  2 H  pz         
    11     -0.734979  1 H  px                46     -0.734979  2 H  px         
    13     -0.613090  1 H  pz                48     -0.613090  2 H  pz         
    29     -0.533361  1 H  fxyy              64     -0.533361  2 H  fxyy       

 Vector    6  Occ=4.028496D-07  E=-2.734424D-07  Symmetry=a
              MO Center= -5.6D-13, -1.4D-09,  6.0D-13, r^2= 3.6D+00
   Bfn.  Coefficient  Atom+Function         Bfn.  Coefficient  Atom+Function  
  ----- ------------  ---------------      ----- ------------  ---------------
     9      1.153312  1 H  py                44     -1.153312  2 H  py         
     2      0.600669  1 H  s                 37      0.600669  2 H  s          
     4     -0.522237  1 H  s                 39     -0.522237  2 H  s          
    27     -0.474831  1 H  fxxy              34     -0.474831  1 H  fyzz       
    62      0.474831  2 H  fxxy              69      0.474831  2 H  fyzz       

 Vector    7  Occ=1.702061D-07  E=-1.593394D-07  Symmetry=a
              MO Center= -1.3D-12,  3.7D-09,  7.9D-13, r^2= 2.9D+00
   Bfn.  Coefficient  Atom+Function         Bfn.  Coefficient  Atom+Function  
  ----- ------------  ---------------      ----- ------------  ---------------
     9      1.439073  1 H  py                44      1.439073  2 H  py         
     3     -0.933716  1 H  s                 38      0.933716  2 H  s          
     2      0.849442  1 H  s                 37     -0.849442  2 H  s          
    27     -0.525735  1 H  fxxy              34     -0.525735  1 H  fyzz       
    62     -0.525735  2 H  fxxy              69     -0.525735  2 H  fyzz       

 Vector    8  Occ=7.673389D-08  E=-9.235575D-08  Symmetry=a
              MO Center=  9.2D-15,  3.0D-09, -1.2D-14, r^2= 3.7D+00
   Bfn.  Coefficient  Atom+Function         Bfn.  Coefficient  Atom+Function  
  ----- ------------  ---------------      ----- ------------  ---------------
     9      3.041889  1 H  py                44     -3.041889  2 H  py         
    27     -1.339723  1 H  fxxy              34     -1.339723  1 H  fyzz       
    62      1.339723  2 H  fxxy              69      1.339723  2 H  fyzz       
    32     -1.037778  1 H  fyyy              67      1.037778  2 H  fyyy       
     6     -0.751488  1 H  py                41      0.751488  2 H  py         

 Vector    9  Occ=5.569135D-10  E=-5.023770D-10  Symmetry=a
              MO Center=  1.0D-12,  6.6D-12, -4.8D-14, r^2= 2.7D+00
   Bfn.  Coefficient  Atom+Function         Bfn.  Coefficient  Atom+Function  
  ----- ------------  ---------------      ----- ------------  ---------------
     8      1.436653  1 H  px                43     -1.436653  2 H  px         
    26     -0.470498  1 H  fxxx              31     -0.470498  1 H  fxzz       
    61      0.470498  2 H  fxxx              66      0.470498  2 H  fxzz       
    21      0.384468  1 H  dxy               56      0.384468  2 H  dxy        
    29     -0.346281  1 H  fxyy              64      0.346281  2 H  fxyy       

 Vector   10  Occ=5.569135D-10  E=-5.023770D-10  Symmetry=a
              MO Center= -2.5D-14,  7.1D-12, -5.7D-13, r^2= 2.7D+00
   Bfn.  Coefficient  Atom+Function         Bfn.  Coefficient  Atom+Function  
  ----- ------------  ---------------      ----- ------------  ---------------
    10      1.436653  1 H  pz                45     -1.436653  2 H  pz         
    28     -0.470498  1 H  fxxz              35     -0.470498  1 H  fzzz       
    63      0.470498  2 H  fxxz              70      0.470498  2 H  fzzz       
    24      0.384468  1 H  dyz               59      0.384468  2 H  dyz        
    33     -0.346281  1 H  fyyz              68      0.346281  2 H  fyyz       

 Vector   11  Occ=0.000000D+00  E= 4.234100D-01  Symmetry=a
              MO Center=  2.5D-12,  2.4D-09, -1.5D-12, r^2= 8.6D+00
   Bfn.  Coefficient  Atom+Function         Bfn.  Coefficient  Atom+Function  
  ----- ------------  ---------------      ----- ------------  ---------------
     3      2.753076  1 H  s                 38     -2.753076  2 H  s          
     4     -1.682409  1 H  s                 39      1.682409  2 H  s          
     9     -1.034197  1 H  py                44     -1.034197  2 H  py         
     2     -0.681105  1 H  s                 37      0.681105  2 H  s          
    12      0.470556  1 H  py                47      0.470556  2 H  py         

 Vector   12  Occ=0.000000D+00  E= 6.338472D-01  Symmetry=a
              MO Center= -1.2D-12,  2.4D-09,  7.3D-13, r^2= 5.6D+00
   Bfn.  Coefficient  Atom+Function         Bfn.  Coefficient  Atom+Function  
  ----- ------------  ---------------      ----- ------------  ---------------
     3      1.754549  1 H  s                 38     -1.754549  2 H  s          
     9      1.281391  1 H  py                44      1.281391  2 H  py         
     4     -1.061432  1 H  s                 39      1.061432  2 H  s          
    12     -0.935396  1 H  py                47     -0.935396  2 H  py         
    27     -0.518013  1 H  fxxy              32     -0.520101  1 H  fyyy       

 Vector   13  Occ=0.000000D+00  E= 8.308696D-01  Symmetry=a
              MO Center=  2.9D-14, -1.8D-08, -1.7D-14, r^2= 7.0D+00
   Bfn.  Coefficient  Atom+Function         Bfn.  Coefficient  Atom+Function  
  ----- ------------  ---------------      ----- ------------  ---------------
     3      3.934832  1 H  s                 38      3.934832  2 H  s          
     4     -1.588064  1 H  s                 39     -1.588064  2 H  s          
     2     -1.254295  1 H  s                 37     -1.254295  2 H  s          
    23     -0.644554  1 H  dyy               58     -0.644554  2 H  dyy        
    20     -0.612014  1 H  dxx               25     -0.612014  1 H  dzz        

 Vector   14  Occ=0.000000D+00  E= 1.139136D+00  Symmetry=a
              MO Center=  4.1D-13, -2.4D-11, -4.7D-14, r^2= 5.2D+00
   Bfn.  Coefficient  Atom+Function         Bfn.  Coefficient  Atom+Function  
  ----- ------------  ---------------      ----- ------------  ---------------
     8      4.910310  1 H  px                43     -4.910310  2 H  px         
    26     -1.907531  1 H  fxxx              31     -1.907531  1 H  fxzz       
    61      1.907531  2 H  fxxx              66      1.907531  2 H  fxzz       
    29     -1.889713  1 H  fxyy              64      1.889713  2 H  fxyy       
    11     -1.479767  1 H  px                46      1.479767  2 H  px         

 Vector   15  Occ=0.000000D+00  E= 1.139136D+00  Symmetry=a
              MO Center= -1.9D-14, -2.2D-11, -1.6D-13, r^2= 5.2D+00
   Bfn.  Coefficient  Atom+Function         Bfn.  Coefficient  Atom+Function  
  ----- ------------  ---------------      ----- ------------  ---------------
    10      4.910310  1 H  pz                45     -4.910310  2 H  pz         
    28     -1.907531  1 H  fxxz              35     -1.907531  1 H  fzzz       
    63      1.907531  2 H  fxxz              70      1.907531  2 H  fzzz       
    33     -1.889713  1 H  fyyz              68      1.889713  2 H  fyyz       
    13     -1.479767  1 H  pz                48      1.479767  2 H  pz         

 Vector   16  Occ=0.000000D+00  E= 1.763791D+00  Symmetry=a
              MO Center= -9.5D-13,  6.3D-09,  5.7D-13, r^2= 5.0D+00
   Bfn.  Coefficient  Atom+Function         Bfn.  Coefficient  Atom+Function  
  ----- ------------  ---------------      ----- ------------  ---------------
     9      4.638883  1 H  py                44      4.638883  2 H  py         
     3      2.197287  1 H  s                 38     -2.197287  2 H  s          
    27     -1.785168  1 H  fxxy              34     -1.785168  1 H  fyzz       
    62     -1.785168  2 H  fxxy              69     -1.785168  2 H  fyzz       
    32     -1.775745  1 H  fyyy              67     -1.775745  2 H  fyyy       

 Vector   17  Occ=0.000000D+00  E= 1.826034D+00  Symmetry=a
              MO Center= -6.9D-14,  5.3D-11,  4.7D-14, r^2= 4.1D+00
   Bfn.  Coefficient  Atom+Function         Bfn.  Coefficient  Atom+Function  
  ----- ------------  ---------------      ----- ------------  ---------------
     8      5.180506  1 H  px                43      5.180506  2 H  px         
    10     -3.463267  1 H  pz                45     -3.463267  2 H  pz         
    26     -2.023365  1 H  fxxx              29     -2.022643  1 H  fxyy       
    31     -2.023365  1 H  fxzz              61     -2.023365  2 H  fxxx       
    64     -2.022643  2 H  fxyy              66     -2.023365  2 H  fxzz       

 Vector   18  Occ=0.000000D+00  E= 1.826034D+00  Symmetry=a
              MO Center= -4.3D-15,  5.3D-11, -2.7D-15, r^2= 4.1D+00
   Bfn.  Coefficient  Atom+Function         Bfn.  Coefficient  Atom+Function  
  ----- ------------  ---------------      ----- ------------  ---------------
    10      5.180506  1 H  pz                45      5.180506  2 H  pz         
     8      3.463267  1 H  px                43      3.463267  2 H  px         
    28     -2.023365  1 H  fxxz              33     -2.022643  1 H  fyyz       
    35     -2.023365  1 H  fzzz              63     -2.023365  2 H  fxxz       
    68     -2.022643  2 H  fyyz              70     -2.023365  2 H  fzzz       

 Vector   19  Occ=0.000000D+00  E= 1.879456D+00  Symmetry=a
              MO Center=  1.4D-15, -2.9D-09,  1.8D-16, r^2= 4.7D+00
   Bfn.  Coefficient  Atom+Function         Bfn.  Coefficient  Atom+Function  
  ----- ------------  ---------------      ----- ------------  ---------------
     9      4.738150  1 H  py                44     -4.738150  2 H  py         
    32     -1.870134  1 H  fyyy              67      1.870134  2 H  fyyy       
    27     -1.857772  1 H  fxxy              34     -1.857772  1 H  fyzz       
    62      1.857772  2 H  fxxy              69      1.857772  2 H  fyzz       
     6     -1.258726  1 H  py                41      1.258726  2 H  py         

 Vector   20  Occ=0.000000D+00  E= 2.045069D+00  Symmetry=a
              MO Center= -1.0D-14, -1.1D-09,  5.9D-15, r^2= 4.2D+00
   Bfn.  Coefficient  Atom+Function         Bfn.  Coefficient  Atom+Function  
  ----- ------------  ---------------      ----- ------------  ---------------
    24      1.237996  1 H  dyz               59     -1.237996  2 H  dyz        
    10     -0.479132  1 H  pz                45     -0.479132  2 H  pz         
    21     -0.377625  1 H  dxy               56      0.377625  2 H  dxy        
    33      0.189352  1 H  fyyz              68      0.189352  2 H  fyyz       
    28      0.187629  1 H  fxxz              35      0.187629  1 H  fzzz       


 Wrote Lagrangian and 1- and 2-particle density matrices to ./H2.mcpdm


     Multipole analysis of the density
     ---------------------------------

     L   x y z        total        nuclear
     -   - - -        -----        -------
     0   0 0 0     -0.000000      2.000000

     1   1 0 0     -0.000000      0.000000
     1   0 1 0     -0.000000      0.000000
     1   0 0 1      0.000000      0.000000

     2   2 0 0     -2.004020      0.000000
     2   1 1 0      0.000000      0.000000
     2   1 0 1     -0.000000      0.000000
     2   0 2 0     -1.956040     20.480000
     2   0 1 1     -0.000000      0.000000
     2   0 0 2     -2.004020      0.000000


  Mulliken analysis of the total density
  --------------------------------------

    Atom       Charge   Shell Charges
 -----------   ------   -------------------------------------------------------
    1 H    1     1.00   0.05  0.22  0.48  0.25  0.00 -0.00  0.00  0.00  0.00  0.00
    2 H    1     1.00   0.05  0.22  0.48  0.25  0.00 -0.00  0.00  0.00  0.00  0.00

    Mulliken analysis of the active space density
    ---------------------------------------------

    Atom       Charge   Shell Charges
 -----------   ------   -------------------------------------------------------
    1 H    1     1.00   0.05  0.22  0.48  0.25  0.00 -0.00  0.00  0.00  0.00  0.00
    2 H    1     1.00   0.05  0.22  0.48  0.25  0.00 -0.00  0.00  0.00  0.00  0.00

 Parallel integral file used       9 records with       0 large values


 Task  times  cpu:        1.1s     wall:        1.6s


                                NWChem Input Module
                                -------------------


                                 NWChem SCF Module
                                 -----------------


                                        H2



  ao basis        = "ao basis"
  functions       =    70
  atoms           =     2
  closed shells   =     1
  open shells     =     0
  charge          =   0.00
  wavefunction    = RHF 
  input vectors   = ./H2.mos
  output vectors  = ./H2-6.40.mos
  use symmetry    = F
  symmetry adapt  = F


 Summary of "ao basis" -> "ao basis" (cartesian)
 ------------------------------------------------------------------------------
       Tag                 Description            Shells   Functions and Types
 ---------------- ------------------------------  ------  ---------------------
 H                          cc-pVQZ                 10       35   4s3p2d1f



 Forming initial guess at       1.7s


 Loading old vectors from job with title :

H2


 Starting SCF solution at       1.7s



 ----------------------------------------------
         Quadratically convergent ROHF

 Convergence threshold     :          1.000E-04
 Maximum no. of iterations :           30
 Final Fock-matrix accuracy:          1.000E-07
 ----------------------------------------------


 Integral file          = ./H2.aoints.0
 Record size in doubles =  65536        No. of integs per rec  =  43688
 Max. records in memory =     99        Max. records in file   = 280222
 No. of bits per label  =      8        No. of bits per value  =     64


 #quartets = 1.507D+04 #integrals = 3.305D+05 #direct =  0.0% #cached =100.0%



       Final RHF  results 
       ------------------ 

         Total SCF energy =     -0.784694616886
      One-electron energy =     -1.325655599018
      Two-electron energy =      0.384710982132
 Nuclear repulsion energy =      0.156250000000

        Time for solution =      0.0s


             Final eigenvalues
             -----------------

              1      
    1   -0.2685
    2   -0.2314
    3   -0.0000
    4   -0.0000
    5   -0.0000
    6   -0.0000
    7   -0.0000
    8   -0.0000
    9   -0.0000
   10   -0.0000
   11    0.4234

                       ROHF Final Molecular Orbital Analysis
                       -------------------------------------

 Vector    1  Occ=2.000000D+00  E=-2.684838D-01
              MO Center=  6.4D-15,  3.7D-12, -4.1D-15, r^2= 3.7D+00
   Bfn.  Coefficient  Atom+Function         Bfn.  Coefficient  Atom+Function  
  ----- ------------  ---------------      ----- ------------  ---------------
     3      0.340787  1 H  s                 38      0.340787  2 H  s          
     4      0.209856  1 H  s                 39      0.209856  2 H  s          
     2      0.176749  1 H  s                 37      0.176749  2 H  s          

 Vector    2  Occ=0.000000D+00  E=-2.314071D-01
              MO Center=  2.6D-14, -3.3D-12, -1.8D-14, r^2= 3.8D+00
   Bfn.  Coefficient  Atom+Function         Bfn.  Coefficient  Atom+Function  
  ----- ------------  ---------------      ----- ------------  ---------------
     3      0.359672  1 H  s                 38     -0.359672  2 H  s          
     4      0.209716  1 H  s                 39     -0.209716  2 H  s          
     2      0.183487  1 H  s                 37     -0.183487  2 H  s          

 Vector    3  Occ=0.000000D+00  E=-4.675042D-05
              MO Center=  1.2D-13,  3.4D-09, -7.8D-14, r^2= 3.9D+00
   Bfn.  Coefficient  Atom+Function         Bfn.  Coefficient  Atom+Function  
  ----- ------------  ---------------      ----- ------------  ---------------
     9      1.779512  1 H  py                44     -1.779512  2 H  py         
    12     -0.995431  1 H  py                47      0.995431  2 H  py         
    32     -0.753203  1 H  fyyy              67      0.753203  2 H  fyyy       
    27     -0.735102  1 H  fxxy              34     -0.735102  1 H  fyzz       
    62      0.735102  2 H  fxxy              69      0.735102  2 H  fyzz       

 Vector    4  Occ=0.000000D+00  E=-1.312239D-05
              MO Center=  4.3D-13, -2.0D-11, -5.2D-13, r^2= 3.9D+00
   Bfn.  Coefficient  Atom+Function         Bfn.  Coefficient  Atom+Function  
  ----- ------------  ---------------      ----- ------------  ---------------
    10      1.210927  1 H  pz                45      1.210927  2 H  pz         
     8     -1.010106  1 H  px                43     -1.010106  2 H  px         
    13     -0.734979  1 H  pz                48     -0.734979  2 H  pz         
    11      0.613090  1 H  px                46      0.613090  2 H  px         
    33     -0.533361  1 H  fyyz              68     -0.533361  2 H  fyyz       

 Vector    5  Occ=0.000000D+00  E=-1.312239D-05
              MO Center=  5.6D-15, -1.9D-11,  6.2D-15, r^2= 3.9D+00
   Bfn.  Coefficient  Atom+Function         Bfn.  Coefficient  Atom+Function  
  ----- ------------  ---------------      ----- ------------  ---------------
     8      1.210927  1 H  px                43      1.210927  2 H  px         
    10      1.010106  1 H  pz                45      1.010106  2 H  pz         
    11     -0.734979  1 H  px                46     -0.734979  2 H  px         
    13     -0.613090  1 H  pz                48     -0.613090  2 H  pz         
    29     -0.533361  1 H  fxyy              64     -0.533361  2 H  fxyy       

 Vector    6  Occ=0.000000D+00  E=-2.734424D-07
              MO Center= -5.6D-13, -1.4D-09,  6.0D-13, r^2= 3.6D+00
   Bfn.  Coefficient  Atom+Function         Bfn.  Coefficient  Atom+Function  
  ----- ------------  ---------------      ----- ------------  ---------------
     9      1.153312  1 H  py                44     -1.153312  2 H  py         
     2      0.600669  1 H  s                 37      0.600669  2 H  s          
     4     -0.522237  1 H  s                 39     -0.522237  2 H  s          
    27     -0.474831  1 H  fxxy              34     -0.474831  1 H  fyzz       
    62      0.474831  2 H  fxxy              69      0.474831  2 H  fyzz       

 Vector    7  Occ=0.000000D+00  E=-1.593394D-07
              MO Center= -1.3D-12,  3.7D-09,  7.9D-13, r^2= 2.9D+00
   Bfn.  Coefficient  Atom+Function         Bfn.  Coefficient  Atom+Function  
  ----- ------------  ---------------      ----- ------------  ---------------
     9      1.439073  1 H  py                44      1.439073  2 H  py         
     3     -0.933716  1 H  s                 38      0.933716  2 H  s          
     2      0.849442  1 H  s                 37     -0.849442  2 H  s          
    27     -0.525735  1 H  fxxy              34     -0.525735  1 H  fyzz       
    62     -0.525735  2 H  fxxy              69     -0.525735  2 H  fyzz       

 Vector    8  Occ=0.000000D+00  E=-9.235575D-08
              MO Center=  9.2D-15,  3.0D-09, -1.2D-14, r^2= 3.7D+00
   Bfn.  Coefficient  Atom+Function         Bfn.  Coefficient  Atom+Function  
  ----- ------------  ---------------      ----- ------------  ---------------
     9      3.041889  1 H  py                44     -3.041889  2 H  py         
    27     -1.339723  1 H  fxxy              34     -1.339723  1 H  fyzz       
    62      1.339723  2 H  fxxy              69      1.339723  2 H  fyzz       
    32     -1.037778  1 H  fyyy              67      1.037778  2 H  fyyy       
     6     -0.751488  1 H  py                41      0.751488  2 H  py         

 Vector    9  Occ=0.000000D+00  E=-5.023770D-10
              MO Center=  1.0D-12,  6.6D-12, -4.8D-14, r^2= 2.7D+00
   Bfn.  Coefficient  Atom+Function         Bfn.  Coefficient  Atom+Function  
  ----- ------------  ---------------      ----- ------------  ---------------
     8      1.436653  1 H  px                43     -1.436653  2 H  px         
    26     -0.470498  1 H  fxxx              31     -0.470498  1 H  fxzz       
    61      0.470498  2 H  fxxx              66      0.470498  2 H  fxzz       
    21      0.384468  1 H  dxy               56      0.384468  2 H  dxy        
    29     -0.346281  1 H  fxyy              64      0.346281  2 H  fxyy       

 Vector   10  Occ=0.000000D+00  E=-5.023770D-10
              MO Center= -2.5D-14,  7.1D-12, -5.7D-13, r^2= 2.7D+00
   Bfn.  Coefficient  Atom+Function         Bfn.  Coefficient  Atom+Function  
  ----- ------------  ---------------      ----- ------------  ---------------
    10      1.436653  1 H  pz                45     -1.436653  2 H  pz         
    28     -0.470498  1 H  fxxz              35     -0.470498  1 H  fzzz       
    63      0.470498  2 H  fxxz              70      0.470498  2 H  fzzz       
    24      0.384468  1 H  dyz               59      0.384468  2 H  dyz        
    33     -0.346281  1 H  fyyz              68      0.346281  2 H  fyyz       

 Vector   11  Occ=0.000000D+00  E= 4.234100D-01
              MO Center=  2.5D-12,  2.4D-09, -1.5D-12, r^2= 8.6D+00
   Bfn.  Coefficient  Atom+Function         Bfn.  Coefficient  Atom+Function  
  ----- ------------  ---------------      ----- ------------  ---------------
     3      2.753076  1 H  s                 38     -2.753076  2 H  s          
     4     -1.682409  1 H  s                 39      1.682409  2 H  s          
     9     -1.034197  1 H  py                44     -1.034197  2 H  py         
     2     -0.681105  1 H  s                 37      0.681105  2 H  s          
    12      0.470556  1 H  py                47      0.470556  2 H  py         

 Vector   12  Occ=0.000000D+00  E= 6.338472D-01
              MO Center= -1.2D-12,  2.4D-09,  7.3D-13, r^2= 5.6D+00
   Bfn.  Coefficient  Atom+Function         Bfn.  Coefficient  Atom+Function  
  ----- ------------  ---------------      ----- ------------  ---------------
     3      1.754549  1 H  s                 38     -1.754549  2 H  s          
     9      1.281391  1 H  py                44      1.281391  2 H  py         
     4     -1.061432  1 H  s                 39      1.061432  2 H  s          
    12     -0.935396  1 H  py                47     -0.935396  2 H  py         
    27     -0.518013  1 H  fxxy              32     -0.520101  1 H  fyyy       


 center of mass
 --------------
 x =   0.00000000 y =   0.00000000 z =   0.00000000

 moments of inertia (a.u.)
 ------------------
          20.640256000000           0.000000000000           0.000000000000
           0.000000000000           0.000000000000           0.000000000000
           0.000000000000           0.000000000000          20.640256000000

  Mulliken analysis of the total density
  --------------------------------------

    Atom       Charge   Shell Charges
 -----------   ------   -------------------------------------------------------
    1 H    1     1.00   0.04  0.21  0.47  0.27 -0.00  0.00 -0.00  0.00  0.00 -0.00
    2 H    1     1.00   0.04  0.21  0.47  0.27 -0.00  0.00 -0.00  0.00  0.00 -0.00

       Multipole analysis of the density wrt the origin
       ------------------------------------------------

     L   x y z        total         open         nuclear
     -   - - -        -----         ----         -------
     0   0 0 0     -0.000000      0.000000      2.000000

     1   1 0 0     -0.000000      0.000000      0.000000
     1   0 1 0     -0.000000      0.000000      0.000000
     1   0 0 1      0.000000      0.000000      0.000000

     2   2 0 0     -2.072248      0.000000      0.000000
     2   1 1 0     -0.000000      0.000000      0.000000
     2   1 0 1      0.000000      0.000000      0.000000
     2   0 2 0     -1.511876      0.000000     20.480000
     2   0 1 1      0.000000      0.000000      0.000000
     2   0 0 2     -2.072248      0.000000      0.000000


 Parallel integral file used       8 records with       0 large values

                   NWChem Extensible Many-Electron Theory Module
                   ---------------------------------------------

              ======================================================
                   This portion of the program was automatically
                  generated by a Tensor Contraction Engine (TCE).
                  The development of this portion of the program
                 and TCE was supported by US Department of Energy,
                Office of Science, Office of Basic Energy Science.
                      TCE is a product of Battelle and PNNL.
              Please cite: S.Hirata, J.Phys.Chem.A 107, 9887 (2003).
              ======================================================

                                        H2


            General Information
            -------------------
      Number of processors :     1
         Wavefunction type : Restricted Hartree-Fock
          No. of electrons :     2
           Alpha electrons :     1
            Beta electrons :     1
           No. of orbitals :   140
            Alpha orbitals :    70
             Beta orbitals :    70
        Alpha frozen cores :     0
         Beta frozen cores :     0
     Alpha frozen virtuals :     0
      Beta frozen virtuals :     0
         Spin multiplicity : singlet 
    Number of AO functions :    70
       Number of AO shells :    20
        Use of symmetry is : off
      Symmetry adaption is : off
         Schwarz screening : 0.10D-09

          Correlation Information
          -----------------------
          Calculation type : Coupled-cluster singles & doubles                           
   Perturbative correction : none                                                        
            Max iterations :      300
        Residual threshold : 0.10D-06
     T(0) DIIS level shift : 0.80D+00
     L(0) DIIS level shift : 0.00D+00
     T(1) DIIS level shift : 0.00D+00
     L(1) DIIS level shift : 0.00D+00
     T(R) DIIS level shift : 0.00D+00
     T(I) DIIS level shift : 0.00D+00
   CC-T/L Amplitude update :  5-th order DIIS
                I/O scheme : Global Array Library
        L-threshold :  0.10D-06
        EOM-threshold :  0.10D-06
 no EOMCCSD initial starts read in
 TCE RESTART OPTIONS
 READ_INT:   F
 WRITE_INT:  F
 READ_TA:    F
 WRITE_TA:   F
 READ_XA:    F
 WRITE_XA:   F
 READ_IN3:   F
 WRITE_IN3:  F
 SLICE:      F
 D4D5:       F
 quantumc:   F
 qrotation:  F
 pwtce:      F
 qducc:      T
 nacto:                         0
 nrotv:                         0
 nrot:                          0

            Memory Information
            ------------------
          Available GA space size is    1610607836 doubles
          Available MA space size is    1610610644 doubles

 Maximum block size        32 doubles

 tile_dim =     23

 Block   Spin    Irrep     Size     Offset   Alpha
 -------------------------------------------------
   1    alpha     a      1 doubles       0       1
   2    beta      a      1 doubles       1       1
   3    alpha     a     23 doubles       2       3
   4    alpha     a     23 doubles      25       4
   5    alpha     a     23 doubles      48       5
   6    beta      a     23 doubles      71       3
   7    beta      a     23 doubles      94       4
   8    beta      a     23 doubles     117       5

 Global array virtual files algorithm will be used

 Parallel file system coherency ......... OK

 Integral file          = ./H2.aoints.0
 Record size in doubles =  65536        No. of integs per rec  =  43688
 Max. records in memory =     99        Max. records in file   = 280222
 No. of bits per label  =      8        No. of bits per value  =     64


 #quartets = 1.678D+04 #integrals = 3.984D+05 #direct =  0.0% #cached =100.0%


 Fock matrix recomputed
 1-e file size   =             4900
 1-e file name   = ./H2.f1
 Cpu & wall time / sec            0.0            0.0
 4-electron integrals stored in orbital form

 v2    file size   =          6102085
 4-index algorithm nr.  13 is used
 imaxsize =       30
 imaxsize ichop =        0
 Cpu & wall time / sec            1.8            1.8
 T1-number-of-tasks                    3

 t1 file size   =               69
 t1 file name   = ./H2.t1
 t1 file handle =       -998
 T2-number-of-boxes                   15

 t2 file size   =             7935
 t2 file name   = ./H2.t2
 t2 file handle =       -996
CCSD iterations
 ---------------------------------------------------------
 Iter          Residuum       Correlation     Cpu    Wall 
 ---------------------------------------------------------
NEW TASK SCHEDULING
CCSD_T1_NTS --- OK
CCSD_T2_NTS --- OK
    1   1.8787407126568  -0.5140917906701     0.1     0.1
    2   1.7278758706401  -0.5684997300602     0.2     0.2
    3   1.1287170176956  -0.2778000577096     0.1     0.1
    4   1.3016857904386  -0.3697852768287     0.1     0.1
    5   1.5366492128679  -0.2282322044502     0.1     0.1
 MICROCYCLE DIIS UPDATE:                    5                    5
    6   0.2144417248984  -0.2702001851209     0.1     0.1
    7   0.1683080939982  -0.2612126488638     0.1     0.1
    8   0.1575613032173  -0.2471509842310     0.1     0.1
    9   0.1708486693335  -0.2454469940829     0.1     0.1
   10   0.1882811953652  -0.2314202682552     0.1     0.1
 MICROCYCLE DIIS UPDATE:                   10                    5
   11   0.0226292250780  -0.2219970723102     0.1     0.1
   12   0.0172639129487  -0.2207016019813     0.1     0.1
   13   0.0177890539711  -0.2195011449736     0.1     0.1
   14   0.0208990303097  -0.2187984539148     0.1     0.1
   15   0.0263054694723  -0.2180456934881     0.1     0.1
 MICROCYCLE DIIS UPDATE:                   15                    5
   16   0.0026946392866  -0.2161080016082     0.1     0.1
   17   0.0014845811813  -0.2160598479520     0.1     0.1
   18   0.0011388165379  -0.2159295481318     0.1     0.1
   19   0.0010918730383  -0.2159136961245     0.1     0.1
   20   0.0010958000339  -0.2157896122741     0.1     0.1
 MICROCYCLE DIIS UPDATE:                   20                    5
   21   0.0004291416111  -0.2157215824688     0.2     0.2
   22   0.0003317808122  -0.2156912970721     0.1     0.1
   23   0.0003202974839  -0.2156701176777     0.1     0.1
   24   0.0003508791385  -0.2156502447961     0.0     0.1
   25   0.0004211219533  -0.2156386914386     0.1     0.1
 MICROCYCLE DIIS UPDATE:                   25                    5
   26   0.0000499212065  -0.2155896874482     0.1     0.1
   27   0.0000315170490  -0.2155895570302     0.1     0.1
   28   0.0000271996365  -0.2155862065788     0.1     0.1
   29   0.0000317235440  -0.2155871920405     0.1     0.1
   30   0.0000418781819  -0.2155833435362     0.1     0.1
 MICROCYCLE DIIS UPDATE:                   30                    5
   31   0.0000086867828  -0.2155834990803     0.1     0.1
   32   0.0000065370377  -0.2155828058357     0.1     0.1
   33   0.0000056932411  -0.2155823430110     0.1     0.1
   34   0.0000056089210  -0.2155819086731     0.1     0.1
   35   0.0000062192394  -0.2155816458251     0.1     0.1
 MICROCYCLE DIIS UPDATE:                   35                    5
   36   0.0000010411120  -0.2155805269920     0.1     0.1
   37   0.0000006073761  -0.2155805134958     0.1     0.1
   38   0.0000004839107  -0.2155804691086     0.1     0.1
   39   0.0000004830760  -0.2155804712384     0.1     0.1
   40   0.0000005864967  -0.2155804213458     0.1     0.2
 MICROCYCLE DIIS UPDATE:                   40                    5
   41   0.0000001524986  -0.2155804171076     0.0     0.1
   42   0.0000001191455  -0.2155804052076     0.1     0.1
   43   0.0000001060475  -0.2155803968493     0.1     0.1
   44   0.0000001058351  -0.2155803888547     0.1     0.1
   45   0.0000001175293  -0.2155803845457     0.1     0.1
 MICROCYCLE DIIS UPDATE:                   45                    5
   46   0.0000000158059  -0.2155803637357     0.1     0.1
 -----------------------------------------------------------------
 Iterations converged
 CCSD correlation energy / hartree =        -0.215580363735741
 CCSD total energy / hartree       =        -1.000274980622052

 Singles contributions

 Doubles contributions
     2a   (alpha)     2a   (beta ) ---     1a   (alpha)     1a   (beta )       -0.9160655803
 Ground state specification:
 exp(T)|Ref>~(1+T)|Ref>
 ------- a(p)+/a(q) strings ----------

 singles norm

 doubles norm

 Reference string
  0.73737487757712650      :(1a)+ (1b)+ |0>

 Singles strings

 Doubles strings
 -0.67548374511761422      :(2a)+ (2b)+ (1b)  (1a)  (1a)+ (1b)+ |0>
 -------------------------------------
 enrep_tce =   0.15624999999999997     
  EHF(total)         =        -0.78469462
  Shift (HFtot-HFA)  =         0.00000000
 ALL OCCUPIED ORBITALS ARE ACTIVE IN DUCC --> NO SHIFT
 Number of active orbitals                   10
 Number of active alpha electrons                    1
 Number of active beta electrons                    1
  nos                     2
  nvs                   138
 noas                     1
 nobs                     1
 nvas                    69
 nvbs                    69
 nactv                     9
 DUCC MODEL =                     3
 NONHF =  T
 F-T1 correlation    =    2.1009955108205580E-005
 V-T1-T1 correlation =    8.6483035128548066E-010
 V-T2 correlation    =  -0.21560137455565037     
 Total correlation   =  -0.21558036373571182     
 F-T1(Ext) correlation         =   -2.4640775468741245E-007
 V-T1(Ext)-T1(Ext) correlation =    3.0132578918638178E-011
 V-T2(Ext) correlation         =   -1.3929521803978575E-006
 Total Ext correlation         =   -1.6393298025063512E-006
1-BODY TIME =    0.035 SECONDS.
  HHHH TIME =    0.014 SECONDS.
  PPPP TIME =    0.001 SECONDS.
  HHHP TIME =    0.033 SECONDS.
  PPPH TIME =    0.078 SECONDS.
  HPHP TIME =    0.012 SECONDS.
  HHPP TIME =    0.303 SECONDS.
 ONE-BODY UNITARY CHECK
 TWO-BODY UNITARY CHECK
 TWO-BODY ANTISYMMETRY CHECK
 TRANSFORMED ~FOCK~ MATRIX
    1    1        -0.2781049130
    1    3         0.0189150428
    1    6         0.0850906368
    1    8        -0.0335992822
    2    2        -0.1025374410
    2    7         0.0808323708
    2    8         0.0000000003
    3    1         0.0189150428
    3    3         0.5002247701
    3    6        -0.0966443101
    3    7         0.0000000007
    3    8        -0.2308175487
    4    4         0.5744491399
    5    5         0.5744491399
    6    1         0.0850906368
    6    3        -0.0966443101
    6    6         0.8366938546
    6    7        -0.0000000022
    6    8         0.3364776310
    7    2         0.0808323708
    7    3         0.0000000007
    7    6        -0.0000000022
    7    7         1.4477991674
    7    8        -0.0000000020
    8    1        -0.0335992822
    8    2         0.0000000003
    8    3        -0.2308175487
    8    6         0.3364776310
    8    7        -0.0000000020
    8    8         2.0916260139
    9    9         1.4034930056
   10   10         1.4034930056
 begin_one_electron_integrals
    1    1        -0.6628277648
    1    3         0.0290876612
    1    6        -0.0005005944
    1    8        -0.0008705004
    2    2        -0.6491529417
    2    7        -0.0023790130
    3    1         0.0290876612
    3    3        -0.0855405025
    3    6        -0.0935930596
    3    7         0.0000000004
    3    8        -0.1452258949
    4    4        -0.0120739334
    5    5        -0.0120739334
    6    1        -0.0005005944
    6    3        -0.0935930596
    6    6         0.1884446964
    6    7        -0.0000000019
    6    8         0.3271587149
    7    2        -0.0023790130
    7    3         0.0000000004
    7    6        -0.0000000019
    7    7         0.7169825711
    7    8        -0.0000000022
    8    1        -0.0008705004
    8    3        -0.1452258949
    8    6         0.3271587149
    8    7        -0.0000000022
    8    8         1.3833313942
    9    9         0.6655160751
   10   10         0.6655160751
 end_one_electron_integrals
 begin_two_electron_integrals
    1    1    1    1        0.3847228519
    1    1    1    3       -0.0101726185
    1    1    1    6        0.0855912313
    1    1    1    8       -0.0327287818
    1    2    1    2        0.2344955899
    1    2    1    7        0.0722181795
    1    2    1    8        0.0000000002
    1    3    1    1       -0.0101726185
    1    3    1    3        0.0423787582
    1    3    1    6       -0.0032646714
    1    3    1    8       -0.0144894239
    1    4    1    4        0.0410461744
    1    5    1    5        0.0410461744
    1    6    1    1        0.0855912313
    1    6    1    3       -0.0032646714
    1    6    1    6        0.0641787041
    1    6    1    8       -0.0190322760
    1    7    1    2        0.0722181795
    1    7    1    7        0.0660844105
    1    7    1    8        0.0000000002
    1    8    1    1       -0.0327287818
    1    8    1    2        0.0000000002
    1    8    1    3       -0.0144894239
    1    8    1    6       -0.0190322760
    1    8    1    7        0.0000000002
    1    8    1    8        0.0342098344
    1    9    1    9        0.0575414742
    1   10    1   10        0.0575414742
    1    1    2    2        0.3905511942
    1    1    2    7        0.0777934717
    1    1    2    8        0.0000000003
    1    2    2    1        0.2344868878
    1    2    2    3        0.0207445613
    1    2    2    6        0.0931624448
    1    2    2    8       -0.0370686669
    1    3    2    2       -0.0069289536
    1    3    2    7       -0.0089730119
    1    3    2    8       -0.0000000002
    1    4    2    9        0.0318954729
    1    4    2   10       -0.0347454293
    1    5    2    9       -0.0347454293
    1    5    2   10       -0.0318954729
    1    6    2    2        0.0900107975
    1    6    2    7        0.0655932405
    1    6    2    8        0.0000000002
    1    7    2    1        0.0723755597
    1    7    2    3       -0.0067527140
    1    7    2    6        0.0652754105
    1    7    2    8       -0.0177573075
    1    8    2    1        0.0000000002
    1    8    2    2       -0.0354125616
    1    8    2    3       -0.0000000001
    1    8    2    6        0.0000000002
    1    8    2    7       -0.0170746838
    1    9    2    4        0.0296105095
    1    9    2    5       -0.0322562976
    1   10    2    4       -0.0322562976
    1   10    2    5       -0.0296105095
    1    1    3    1       -0.0101726185
    1    1    3    3        0.3139478956
    1    1    3    6       -0.0031380130
    1    1    3    7        0.0000000002
    1    1    3    8       -0.0500533198
    1    2    3    2        0.0207478106
    1    2    3    3       -0.0000000003
    1    2    3    6       -0.0000000001
    1    2    3    7       -0.0271719992
    1    2    3    8       -0.0000000005
    1    3    3    1        0.0421305185
    1    3    3    3       -0.0292845114
    1    3    3    6       -0.0083742981
    1    3    3    8        0.0337056448
    1    4    3    4       -0.0066774426
    1    5    3    5       -0.0066774426
    1    6    3    1       -0.0032247755
    1    6    3    3        0.0339590521
    1    6    3    6       -0.0107090808
    1    6    3    7        0.0000000001
    1    6    3    8       -0.0277483760
    1    7    3    2       -0.0067890486
    1    7    3    7       -0.0138788807
    1    8    3    1       -0.0145149858
    1    8    3    2       -0.0000000001
    1    8    3    3        0.0064486971
    1    8    3    6       -0.0058216088
    1    8    3    8       -0.0061358806
    1    9    3    9       -0.0101307971
    1   10    3   10       -0.0101307971
    1    1    4    4        0.3137357973
    1    2    4    9        0.1076444483
    1    2    4   10       -0.1172628034
    1    3    4    4       -0.0210398416
    1    4    4    1        0.0409485214
    1    4    4    3       -0.0066787866
    1    4    4    6       -0.0153087370
    1    4    4    8       -0.0048181767
    1    6    4    4        0.0328609692
    1    7    4    9        0.0249544147
    1    7    4   10       -0.0271841667
    1    8    4    4       -0.0124457506
    1    8    4    9        0.0000000001
    1    8    4   10       -0.0000000001
    1    9    4    2        0.0296348508
    1    9    4    7       -0.0080126800
    1   10    4    2       -0.0322828138
    1   10    4    7        0.0087286371
    1    1    5    5        0.3137357973
    1    2    5    9       -0.1172628034
    1    2    5   10       -0.1076444483
    1    3    5    5       -0.0210398416
    1    5    5    1        0.0409485214
    1    5    5    3       -0.0066787866
    1    5    5    6       -0.0153087370
    1    5    5    8       -0.0048181767
    1    6    5    5        0.0328609692
    1    7    5    9       -0.0271841667
    1    7    5   10       -0.0249544147
    1    8    5    5       -0.0124457506
    1    8    5    9       -0.0000000001
    1    8    5   10       -0.0000000001
    1    9    5    2       -0.0322828138
    1    9    5    7        0.0087286371
    1   10    5    2       -0.0296348508
    1   10    5    7        0.0080126800
    1    1    6    1        0.0855912313
    1    1    6    3       -0.0031380130
    1    1    6    6        0.3562257246
    1    1    6    7       -0.0000000001
    1    1    6    8       -0.0048871441
    1    2    6    2        0.0931605814
    1    2    6    3       -0.0000000001
    1    2    6    6        0.0000000002
    1    2    6    7        0.2015171116
    1    2    6    8        0.0000000008
    1    3    6    1       -0.0032247755
    1    3    6    3       -0.0083744403
    1    3    6    6       -0.0300604585
    1    3    6    7        0.0000000001
    1    3    6    8       -0.0284854891
    1    4    6    4       -0.0153110599
    1    5    6    5       -0.0153110599
    1    6    6    1        0.0642022911
    1    6    6    3       -0.0107124964
    1    6    6    6        0.0808313170
    1    6    6    8       -0.0109625763
    1    7    6    2        0.0652843687
    1    7    6    7        0.0842940599
    1    7    6    8        0.0000000003
    1    8    6    1       -0.0190932043
    1    8    6    2        0.0000000002
    1    8    6    3       -0.0058209704
    1    8    6    6       -0.0229112002
    1    8    6    7        0.0000000003
    1    8    6    8        0.0266447742
    1    9    6    9        0.0171118070
    1   10    6   10        0.0171118070
    1    1    7    2        0.0777934717
    1    1    7    3        0.0000000002
    1    1    7    6       -0.0000000001
    1    1    7    7        0.3984351211
    1    1    7    8        0.0000000002
    1    2    7    1        0.0723755597
    1    2    7    3       -0.0271941288
    1    2    7    6        0.2015183909
    1    2    7    7       -0.0000000006
    1    2    7    8       -0.0139609245
    1    3    7    2       -0.0090314760
    1    3    7    6        0.0000000001
    1    3    7    7       -0.0336530951
    1    4    7    9       -0.0005432224
    1    4    7   10        0.0005917609
    1    5    7    9        0.0005917609
    1    5    7   10        0.0005432224
    1    6    7    2        0.0656034780
    1    6    7    3        0.0000000001
    1    6    7    7        0.1067672983
    1    6    7    8        0.0000000002
    1    7    7    1        0.0660536459
    1    7    7    3       -0.0138644665
    1    7    7    6        0.0843037894
    1    7    7    7       -0.0000000002
    1    7    7    8       -0.0092997122
    1    8    7    1        0.0000000002
    1    8    7    2       -0.0170451291
    1    8    7    6        0.0000000003
    1    8    7    7       -0.0286152394
    1    9    7    4       -0.0080188096
    1    9    7    5        0.0087353143
    1   10    7    4        0.0087353143
    1   10    7    5        0.0080188096
    1    1    8    1       -0.0327287818
    1    1    8    2        0.0000000003
    1    1    8    3       -0.0500533198
    1    1    8    6       -0.0048871441
    1    1    8    7        0.0000000002
    1    1    8    8        0.3712505790
    1    2    8    1        0.0000000002
    1    2    8    2       -0.0370767329
    1    2    8    3       -0.0000000005
    1    2    8    6        0.0000000008
    1    2    8    7       -0.0139709291
    1    2    8    8        0.0000000002
    1    3    8    1       -0.0145149858
    1    3    8    2       -0.0000000002
    1    3    8    3        0.0337036828
    1    3    8    6       -0.0284861061
    1    3    8    8       -0.0339087694
    1    4    8    4       -0.0048185535
    1    5    8    5       -0.0048185535
    1    6    8    1       -0.0190932043
    1    6    8    2        0.0000000002
    1    6    8    3       -0.0277483546
    1    6    8    6       -0.0109617337
    1    6    8    7        0.0000000002
    1    6    8    8        0.0815434672
    1    7    8    1        0.0000000002
    1    7    8    2       -0.0177377574
    1    7    8    6        0.0000000003
    1    7    8    7       -0.0092879713
    1    7    8    8        0.0000000001
    1    8    8    1        0.0342065382
    1    8    8    3       -0.0061374594
    1    8    8    6        0.0266445062
    1    8    8    8        0.0018477482
    1    9    8    9       -0.0116032128
    1   10    8   10       -0.0116032128
    1    1    9    9        0.3982256128
    1    2    9    4        0.1076464965
    1    2    9    5       -0.1172650347
    1    3    9    9       -0.0317765941
    1    4    9    2        0.0319218625
    1    4    9    7       -0.0005501351
    1    5    9    2       -0.0347741769
    1    5    9    7        0.0005992913
    1    6    9    9        0.0858184575
    1    7    9    4        0.0249413724
    1    7    9    5       -0.0271699590
    1    8    9    4        0.0000000001
    1    8    9    5       -0.0000000001
    1    8    9    9       -0.0262466803
    1    9    9    1        0.0584742951
    1    9    9    3       -0.0101268846
    1    9    9    6        0.0170955800
    1    9    9    8       -0.0115983479
    1    1   10   10        0.3982256128
    1    2   10    4       -0.1172650347
    1    2   10    5       -0.1076464965
    1    3   10   10       -0.0317765941
    1    4   10    2       -0.0347741769
    1    4   10    7        0.0005992913
    1    5   10    2       -0.0319218625
    1    5   10    7        0.0005501351
    1    6   10   10        0.0858184575
    1    7   10    4       -0.0271699590
    1    7   10    5       -0.0249413724
    1    8   10    4       -0.0000000001
    1    8   10    5       -0.0000000001
    1    8   10   10       -0.0262466803
    1   10   10    1        0.0584742951
    1   10   10    3       -0.0101268846
    1   10   10    6        0.0170955800
    1   10   10    8       -0.0115983479
    2    1    1    2        0.2344868878
    2    1    1    7        0.0723755597
    2    1    1    8        0.0000000002
    2    2    1    1        0.3905511942
    2    2    1    3       -0.0069289536
    2    2    1    6        0.0900107975
    2    2    1    8       -0.0354125616
    2    3    1    2        0.0207445613
    2    3    1    7       -0.0067527140
    2    3    1    8       -0.0000000001
    2    4    1    9        0.0296105095
    2    4    1   10       -0.0322562976
    2    5    1    9       -0.0322562976
    2    5    1   10       -0.0296105095
    2    6    1    2        0.0931624448
    2    6    1    7        0.0652754105
    2    6    1    8        0.0000000002
    2    7    1    1        0.0777934717
    2    7    1    3       -0.0089730119
    2    7    1    6        0.0655932405
    2    7    1    8       -0.0170746838
    2    8    1    1        0.0000000003
    2    8    1    2       -0.0370686669
    2    8    1    3       -0.0000000002
    2    8    1    6        0.0000000002
    2    8    1    7       -0.0177573075
    2    9    1    4        0.0318954729
    2    9    1    5       -0.0347454293
    2   10    1    4       -0.0347454293
    2   10    1    5       -0.0318954729
    2    1    2    1        0.2344955899
    2    1    2    3        0.0207478106
    2    1    2    6        0.0931605814
    2    1    2    8       -0.0370767329
    2    2    2    2        0.3970647096
    2    2    2    7        0.0815232708
    2    2    2    8        0.0000000003
    2    3    2    1        0.0207478106
    2    3    2    3        0.0330281227
    2    3    2    6       -0.0026364866
    2    3    2    8       -0.0139318925
    2    4    2    4        0.0372408585
    2    5    2    5        0.0372408585
    2    6    2    1        0.0931605814
    2    6    2    3       -0.0026364866
    2    6    2    6        0.0684268196
    2    6    2    8       -0.0212009639
    2    7    2    2        0.0815232708
    2    7    2    7        0.0703584361
    2    7    2    8        0.0000000002
    2    8    2    1       -0.0370767329
    2    8    2    2        0.0000000003
    2    8    2    3       -0.0139318925
    2    8    2    6       -0.0212009639
    2    8    2    7        0.0000000002
    2    8    2    8        0.0354912272
    2    9    2    9        0.0629039875
    2   10    2   10        0.0629039875
    2    1    3    2        0.0207445613
    2    1    3    3       -0.0000000003
    2    1    3    6       -0.0000000001
    2    1    3    7       -0.0271941288
    2    1    3    8       -0.0000000005
    2    2    3    1       -0.0069289536
    2    2    3    3        0.3136400402
    2    2    3    6       -0.0050945697
    2    2    3    7        0.0000000002
    2    2    3    8       -0.0496284932
    2    3    3    2        0.0330281227
    2    3    3    7       -0.0061152295
    2    3    3    8       -0.0000000001
    2    4    3    9       -0.0049380033
    2    4    3   10        0.0053792288
    2    5    3    9        0.0053792288
    2    5    3   10        0.0049380033
    2    6    3    2       -0.0026364866
    2    6    3    7       -0.0144520778
    2    6    3    8       -0.0000000002
    2    7    3    1       -0.0090314760
    2    7    3    3        0.0292389722
    2    7    3    6       -0.0101156650
    2    7    3    7        0.0000000001
    2    7    3    8       -0.0288416306
    2    8    3    1       -0.0000000002
    2    8    3    2       -0.0139318925
    2    8    3    3        0.0000000002
    2    8    3    7       -0.0023016070
    2    8    3    8       -0.0000000002
    2    9    3    4       -0.0055093632
    2    9    3    5        0.0060016413
    2   10    3    4        0.0060016413
    2   10    3    5        0.0055093632
    2    1    4    9        0.1076464965
    2    1    4   10       -0.1172650347
    2    2    4    4        0.3154094352
    2    3    4    9        0.0008511249
    2    3    4   10       -0.0009271755
    2    4    4    2        0.0372408585
    2    4    4    7       -0.0168880188
    2    6    4    9        0.0355123699
    2    6    4   10       -0.0386855070
    2    7    4    4        0.0260054041
    2    8    4    4        0.0000000002
    2    8    4    9       -0.0119143547
    2    8    4   10        0.0129789381
    2    9    4    1        0.0319218625
    2    9    4    3       -0.0055093632
    2    9    4    6       -0.0054974950
    2    9    4    8       -0.0046926884
    2   10    4    1       -0.0347741769
    2   10    4    3        0.0060016413
    2   10    4    6        0.0059887127
    2   10    4    8        0.0051119942
    2    1    5    9       -0.1172650347
    2    1    5   10       -0.1076464965
    2    2    5    5        0.3154094352
    2    3    5    9       -0.0009271755
    2    3    5   10       -0.0008511249
    2    5    5    2        0.0372408585
    2    5    5    7       -0.0168880188
    2    6    5    9       -0.0386855070
    2    6    5   10       -0.0355123699
    2    7    5    5        0.0260054041
    2    8    5    5        0.0000000002
    2    8    5    9        0.0129789381
    2    8    5   10        0.0119143547
    2    9    5    1       -0.0347741769
    2    9    5    3        0.0060016413
    2    9    5    6        0.0059887127
    2    9    5    8        0.0051119942
    2   10    5    1       -0.0319218625
    2   10    5    3        0.0055093632
    2   10    5    6        0.0054974950
    2   10    5    8        0.0046926884
    2    1    6    2        0.0931624448
    2    1    6    3       -0.0000000001
    2    1    6    6        0.0000000002
    2    1    6    7        0.2015183909
    2    1    6    8        0.0000000008
    2    2    6    1        0.0900107975
    2    2    6    3       -0.0050945697
    2    2    6    6        0.3595606061
    2    2    6    7       -0.0000000001
    2    2    6    8       -0.0077894296
    2    3    6    2       -0.0026364866
    2    3    6    7       -0.0005745910
    2    4    6    9        0.0049035077
    2    4    6   10       -0.0053416509
    2    5    6    9       -0.0053416509
    2    5    6   10       -0.0049035077
    2    6    6    2        0.0684268196
    2    6    6    6        0.0000000001
    2    6    6    7        0.0961979521
    2    6    6    8        0.0000000004
    2    7    6    1        0.0656034780
    2    7    6    3       -0.0101156650
    2    7    6    6        0.0814778669
    2    7    6    8       -0.0089169823
    2    8    6    1        0.0000000002
    2    8    6    2       -0.0212009639
    2    8    6    6        0.0000000004
    2    8    6    7       -0.0277592616
    2    9    6    4       -0.0054974950
    2    9    6    5        0.0059887127
    2   10    6    4        0.0059887127
    2   10    6    5        0.0054974950
    2    1    7    1        0.0722181795
    2    1    7    3       -0.0271719992
    2    1    7    6        0.2015171116
    2    1    7    7       -0.0000000006
    2    1    7    8       -0.0139709291
    2    2    7    2        0.0815232708
    2    2    7    3        0.0000000002
    2    2    7    6       -0.0000000001
    2    2    7    7        0.4037002772
    2    2    7    8        0.0000000002
    2    3    7    1       -0.0067890486
    2    3    7    3       -0.0061152295
    2    3    7    6       -0.0005745910
    2    3    7    7        0.0000000001
    2    3    7    8       -0.0189863919
    2    4    7    4       -0.0168880188
    2    5    7    5       -0.0168880188
    2    6    7    1        0.0652843687
    2    6    7    3       -0.0144520778
    2    6    7    6        0.0961979521
    2    6    7    7       -0.0000000002
    2    6    7    8       -0.0103324297
    2    7    7    2        0.0703584361
    2    7    7    3        0.0000000001
    2    7    7    7        0.1078597033
    2    7    7    8        0.0000000001
    2    8    7    1       -0.0177377574
    2    8    7    2        0.0000000002
    2    8    7    3       -0.0023016070
    2    8    7    6       -0.0277592616
    2    8    7    7        0.0000000004
    2    8    7    8        0.0246609785
    2    9    7    9        0.0090579975
    2   10    7   10        0.0090579975
    2    1    8    1        0.0000000002
    2    1    8    2       -0.0370686669
    2    1    8    3       -0.0000000005
    2    1    8    6        0.0000000008
    2    1    8    7       -0.0139609245
    2    1    8    8        0.0000000002
    2    2    8    1       -0.0354125616
    2    2    8    2        0.0000000003
    2    2    8    3       -0.0496284932
    2    2    8    6       -0.0077894296
    2    2    8    7        0.0000000002
    2    2    8    8        0.3745103590
    2    3    8    1       -0.0000000001
    2    3    8    2       -0.0139318925
    2    3    8    3       -0.0000000001
    2    3    8    7       -0.0189863919
    2    3    8    8       -0.0000000003
    2    4    8    9       -0.0058087966
    2    4    8   10        0.0063278300
    2    5    8    9        0.0063278300
    2    5    8   10        0.0058087966
    2    6    8    1        0.0000000002
    2    6    8    2       -0.0212009639
    2    6    8    3       -0.0000000002
    2    6    8    6        0.0000000004
    2    6    8    7       -0.0103324297
    2    6    8    8        0.0000000002
    2    7    8    1       -0.0170451291
    2    7    8    2        0.0000000002
    2    7    8    3       -0.0288416306
    2    7    8    6       -0.0089169823
    2    7    8    7        0.0000000001
    2    7    8    8        0.0767849106
    2    8    8    2        0.0354912272
    2    8    8    3       -0.0000000002
    2    8    8    7        0.0246609785
    2    8    8    8        0.0000000006
    2    9    8    4       -0.0046926884
    2    9    8    5        0.0051119942
    2    9    8    9        0.0000000001
    2   10    8    4        0.0051119942
    2   10    8    5        0.0046926884
    2   10    8   10        0.0000000001
    2    1    9    4        0.1076444483
    2    1    9    5       -0.1172628034
    2    2    9    9        0.4031757267
    2    3    9    4        0.0008511249
    2    3    9    5       -0.0009271755
    2    4    9    1        0.0296348508
    2    4    9    3       -0.0049380033
    2    4    9    6        0.0049035077
    2    4    9    8       -0.0058087966
    2    5    9    1       -0.0322828138
    2    5    9    3        0.0053792288
    2    5    9    6       -0.0053416509
    2    5    9    8        0.0063278300
    2    6    9    4        0.0355123699
    2    6    9    5       -0.0386855070
    2    7    9    9        0.0778629165
    2    8    9    4       -0.0119143547
    2    8    9    5        0.0129789381
    2    8    9    9        0.0000000004
    2    9    9    2        0.0629039875
    2    9    9    7        0.0090579975
    2    9    9    8        0.0000000001
    2    1   10    4       -0.1172628034
    2    1   10    5       -0.1076444483
    2    2   10   10        0.4031757267
    2    3   10    4       -0.0009271755
    2    3   10    5       -0.0008511249
    2    4   10    1       -0.0322828138
    2    4   10    3        0.0053792288
    2    4   10    6       -0.0053416509
    2    4   10    8        0.0063278300
    2    5   10    1       -0.0296348508
    2    5   10    3        0.0049380033
    2    5   10    6       -0.0049035077
    2    5   10    8        0.0058087966
    2    6   10    4       -0.0386855070
    2    6   10    5       -0.0355123699
    2    7   10   10        0.0778629165
    2    8   10    4        0.0129789381
    2    8   10    5        0.0119143547
    2    8   10   10        0.0000000004
    2   10   10    2        0.0629039875
    2   10   10    7        0.0090579975
    2   10   10    8        0.0000000001
    3    1    1    1       -0.0101726185
    3    1    1    3        0.0421305185
[...]
    9    6    3    9       -0.0038339632
    9    7    3    4       -0.0003914006
    9    7    3    5        0.0004263735
    9    8    3    9       -0.0072444789
    9    9    3    1       -0.0317765941
    9    9    3    3        0.3274643684
    9    9    3    6       -0.0037369120
    9    9    3    7        0.0000000002
    9    9    3    8       -0.0682164956
    9    1    4    2        0.0296105095
    9    1    4    7       -0.0080188096
    9    2    4    1        0.0318954729
    9    2    4    3       -0.0055093632
    9    2    4    6       -0.0054974950
    9    2    4    8       -0.0046926884
    9    3    4    2       -0.0049380033
    9    3    4    7        0.0012260370
    9    4    4    9        0.0683935027
    9    4    4   10       -0.0623208568
    9    5    4    9       -0.0623208568
    9    5    4   10        0.0567049657
    9    6    4    2        0.0049035077
    9    6    4    7        0.0055997011
    9    7    4    1       -0.0005432224
    9    7    4    3       -0.0003914006
    9    7    4    6        0.0081974957
    9    7    4    8        0.0007703551
    9    8    4    2       -0.0058087966
    9    8    4    7        0.0023804194
    9    9    4    4        0.3372545504
    9    9    4    5       -0.0134864338
    9   10    4    4       -0.0134864338
    9   10    4    5        0.0011556318
    9    1    5    2       -0.0322562976
    9    1    5    7        0.0087353143
    9    2    5    1       -0.0347454293
    9    2    5    3        0.0060016413
    9    2    5    6        0.0059887127
    9    2    5    8        0.0051119942
    9    3    5    2        0.0053792288
    9    3    5    7       -0.0013355871
    9    4    5    9       -0.0623208568
    9    4    5   10       -0.0460246086
    9    5    5    9        0.0790738598
    9    5    5   10        0.0623208568
    9    6    5    2       -0.0053416509
    9    6    5    7       -0.0061000512
    9    7    5    1        0.0005917609
    9    7    5    3        0.0004263735
    9    7    5    6       -0.0089299666
    9    7    5    8       -0.0008391887
    9    8    5    2        0.0063278300
    9    8    5    7       -0.0025931170
    9    9    5    4       -0.0134864338
    9    9    5    5        0.3395658140
    9   10    5    4        0.0011556318
    9   10    5    5        0.0134864338
    9    1    6    9        0.0170955800
    9    2    6    4       -0.0054974950
    9    2    6    5        0.0059887127
    9    3    6    9       -0.0038339632
    9    4    6    2        0.0355123699
    9    4    6    7        0.0921933809
    9    4    6    8        0.0000000004
    9    5    6    2       -0.0386855070
    9    5    6    7       -0.1004311366
    9    5    6    8       -0.0000000004
    9    6    6    9        0.0149717380
    9    7    6    4        0.0081974957
    9    7    6    5       -0.0089299666
    9    8    6    9       -0.0015552154
    9    9    6    1        0.0858184575
    9    9    6    3       -0.0037369120
    9    9    6    6        0.3696939693
    9    9    6    7       -0.0000000002
    9    9    6    8        0.0126095180
    9    1    7    4       -0.0080126800
    9    1    7    5        0.0087286371
    9    2    7    9        0.0090579975
    9    3    7    4        0.0012260370
    9    3    7    5       -0.0013355871
    9    4    7    1        0.0249544147
    9    4    7    3       -0.0103473752
    9    4    7    6        0.0921933809
    9    4    7    7       -0.0000000003
    9    4    7    8        0.0026448054
    9    5    7    1       -0.0271841667
    9    5    7    3        0.0112719443
    9    5    7    6       -0.1004311366
    9    5    7    7        0.0000000004
    9    5    7    8       -0.0028811267
    9    6    7    4        0.0055997011
    9    6    7    5       -0.0061000512
    9    7    7    9        0.0174552095
    9    8    7    4        0.0023804194
    9    8    7    5       -0.0025931170
    9    9    7    2        0.0778629165
    9    9    7    3        0.0000000002
    9    9    7    6       -0.0000000002
    9    9    7    7        0.4154586441
    9    9    7    8        0.0000000002
    9    1    8    9       -0.0115983479
    9    2    8    4       -0.0046926884
    9    2    8    5        0.0051119942
    9    2    8    9        0.0000000001
    9    3    8    9       -0.0072444789
    9    4    8    1        0.0000000001
    9    4    8    2       -0.0119143547
    9    4    8    3       -0.0000000003
    9    4    8    6        0.0000000004
    9    4    8    7        0.0026448054
    9    4    8    8        0.0000000002
    9    5    8    1       -0.0000000001
    9    5    8    2        0.0129789381
    9    5    8    3        0.0000000003
    9    5    8    6       -0.0000000004
    9    5    8    7       -0.0028811267
    9    5    8    8       -0.0000000002
    9    6    8    9       -0.0015552154
    9    7    8    4        0.0007703551
    9    7    8    5       -0.0008391887
    9    8    8    9        0.0156376543
    9    9    8    1       -0.0262466803
    9    9    8    2        0.0000000004
    9    9    8    3       -0.0682164956
    9    9    8    6        0.0126095180
    9    9    8    7        0.0000000002
    9    9    8    8        0.3897854698
    9    1    9    1        0.0575414742
    9    1    9    3       -0.0101307971
    9    1    9    6        0.0171118070
    9    1    9    8       -0.0116032128
    9    2    9    2        0.0629039875
    9    2    9    7        0.0090579975
    9    2    9    8        0.0000000001
    9    3    9    1       -0.0101307971
    9    3    9    3        0.0114166784
    9    3    9    6       -0.0038339632
    9    3    9    8       -0.0072444789
    9    4    9    4        0.0683935027
    9    4    9    5       -0.0623208568
    9    5    9    4       -0.0623208568
    9    5    9    5        0.0790738598
    9    6    9    1        0.0171118070
    9    6    9    3       -0.0038339632
    9    6    9    6        0.0149717380
    9    6    9    8       -0.0015552154
    9    7    9    2        0.0090579975
    9    7    9    7        0.0174552095
    9    8    9    1       -0.0116032128
    9    8    9    2        0.0000000001
    9    8    9    3       -0.0072444789
    9    8    9    6       -0.0015552154
    9    8    9    8        0.0156376543
    9    9    9    9        0.4616175431
    9   10    9   10        0.0220915089
    9    4   10    4       -0.0623208568
    9    4   10    5       -0.0460246086
    9    5   10    4        0.0567049657
    9    5   10    5        0.0623208568
    9    9   10   10        0.4174345254
    9   10   10    9        0.0220915089
   10    1    1   10        0.0584742951
   10    2    1    4       -0.0347741769
   10    2    1    5       -0.0319218625
   10    3    1   10       -0.0101268846
   10    4    1    2       -0.1172650347
   10    4    1    7       -0.0271699590
   10    4    1    8       -0.0000000001
   10    5    1    2       -0.1076464965
   10    5    1    7       -0.0249413724
   10    5    1    8       -0.0000000001
   10    6    1   10        0.0170955800
   10    7    1    4        0.0005992913
   10    7    1    5        0.0005501351
   10    8    1   10       -0.0115983479
   10   10    1    1        0.3982256128
   10   10    1    3       -0.0317765941
   10   10    1    6        0.0858184575
   10   10    1    8       -0.0262466803
   10    1    2    4       -0.0322828138
   10    1    2    5       -0.0296348508
   10    2    2   10        0.0629039875
   10    3    2    4        0.0053792288
   10    3    2    5        0.0049380033
   10    4    2    1       -0.1172628034
   10    4    2    3       -0.0009271755
   10    4    2    6       -0.0386855070
   10    4    2    8        0.0129789381
   10    5    2    1       -0.1076444483
   10    5    2    3       -0.0008511249
   10    5    2    6       -0.0355123699
   10    5    2    8        0.0119143547
   10    6    2    4       -0.0053416509
   10    6    2    5       -0.0049035077
   10    7    2   10        0.0090579975
   10    8    2    4        0.0063278300
   10    8    2    5        0.0058087966
   10    8    2   10        0.0000000001
   10   10    2    2        0.4031757267
   10   10    2    7        0.0778629165
   10   10    2    8        0.0000000004
   10    1    3   10       -0.0101268846
   10    2    3    4        0.0060016413
   10    2    3    5        0.0055093632
   10    3    3   10        0.0114166784
   10    4    3    2       -0.0009271755
   10    4    3    3        0.0000000002
   10    4    3    7        0.0112719443
   10    4    3    8        0.0000000003
   10    5    3    2       -0.0008511249
   10    5    3    3        0.0000000002
   10    5    3    7        0.0103473752
   10    5    3    8        0.0000000003
   10    6    3   10       -0.0038339632
   10    7    3    4        0.0004263735
   10    7    3    5        0.0003914006
   10    8    3   10       -0.0072444789
   10   10    3    1       -0.0317765941
   10   10    3    3        0.3274643684
   10   10    3    6       -0.0037369120
   10   10    3    7        0.0000000002
   10   10    3    8       -0.0682164956
   10    1    4    2       -0.0322562976
   10    1    4    7        0.0087353143
   10    2    4    1       -0.0347454293
   10    2    4    3        0.0060016413
   10    2    4    6        0.0059887127
   10    2    4    8        0.0051119942
   10    3    4    2        0.0053792288
   10    3    4    7       -0.0013355871
   10    4    4    9       -0.0623208568
   10    4    4   10        0.0790738598
   10    5    4    9       -0.0460246086
   10    5    4   10        0.0623208568
   10    6    4    2       -0.0053416509
   10    6    4    7       -0.0061000512
   10    7    4    1        0.0005917609
   10    7    4    3        0.0004263735
   10    7    4    6       -0.0089299666
   10    7    4    8       -0.0008391887
   10    8    4    2        0.0063278300
   10    8    4    7       -0.0025931170
   10    9    4    4       -0.0134864338
   10    9    4    5        0.0011556318
   10   10    4    4        0.3395658140
   10   10    4    5        0.0134864338
   10    1    5    2       -0.0296105095
   10    1    5    7        0.0080188096
   10    2    5    1       -0.0318954729
   10    2    5    3        0.0055093632
   10    2    5    6        0.0054974950
   10    2    5    8        0.0046926884
   10    3    5    2        0.0049380033
   10    3    5    7       -0.0012260370
   10    4    5    9        0.0567049657
   10    4    5   10        0.0623208568
   10    5    5    9        0.0623208568
   10    5    5   10        0.0683935027
   10    6    5    2       -0.0049035077
   10    6    5    7       -0.0055997011
   10    7    5    1        0.0005432224
   10    7    5    3        0.0003914006
   10    7    5    6       -0.0081974957
   10    7    5    8       -0.0007703551
   10    8    5    2        0.0058087966
   10    8    5    7       -0.0023804194
   10    9    5    4        0.0011556318
   10    9    5    5        0.0134864338
   10   10    5    4        0.0134864338
   10   10    5    5        0.3372545504
   10    1    6   10        0.0170955800
   10    2    6    4        0.0059887127
   10    2    6    5        0.0054974950
   10    3    6   10       -0.0038339632
   10    4    6    2       -0.0386855070
   10    4    6    7       -0.1004311366
   10    4    6    8       -0.0000000004
   10    5    6    2       -0.0355123699
   10    5    6    7       -0.0921933809
   10    5    6    8       -0.0000000004
   10    6    6   10        0.0149717380
   10    7    6    4       -0.0089299666
   10    7    6    5       -0.0081974957
   10    8    6   10       -0.0015552154
   10   10    6    1        0.0858184575
   10   10    6    3       -0.0037369120
   10   10    6    6        0.3696939693
   10   10    6    7       -0.0000000002
   10   10    6    8        0.0126095180
   10    1    7    4        0.0087286371
   10    1    7    5        0.0080126800
   10    2    7   10        0.0090579975
   10    3    7    4       -0.0013355871
   10    3    7    5       -0.0012260370
   10    4    7    1       -0.0271841667
   10    4    7    3        0.0112719443
   10    4    7    6       -0.1004311366
   10    4    7    7        0.0000000004
   10    4    7    8       -0.0028811267
   10    5    7    1       -0.0249544147
   10    5    7    3        0.0103473752
   10    5    7    6       -0.0921933809
   10    5    7    7        0.0000000003
   10    5    7    8       -0.0026448054
   10    6    7    4       -0.0061000512
   10    6    7    5       -0.0055997011
   10    7    7   10        0.0174552095
   10    8    7    4       -0.0025931170
   10    8    7    5       -0.0023804194
   10   10    7    2        0.0778629165
   10   10    7    3        0.0000000002
   10   10    7    6       -0.0000000002
   10   10    7    7        0.4154586441
   10   10    7    8        0.0000000002
   10    1    8   10       -0.0115983479
   10    2    8    4        0.0051119942
   10    2    8    5        0.0046926884
   10    2    8   10        0.0000000001
   10    3    8   10       -0.0072444789
   10    4    8    1       -0.0000000001
   10    4    8    2        0.0129789381
   10    4    8    3        0.0000000003
   10    4    8    6       -0.0000000004
   10    4    8    7       -0.0028811267
   10    4    8    8       -0.0000000002
   10    5    8    1       -0.0000000001
   10    5    8    2        0.0119143547
   10    5    8    3        0.0000000003
   10    5    8    6       -0.0000000004
   10    5    8    7       -0.0026448054
   10    5    8    8       -0.0000000002
   10    6    8   10       -0.0015552154
   10    7    8    4       -0.0008391887
   10    7    8    5       -0.0007703551
   10    8    8   10        0.0156376543
   10   10    8    1       -0.0262466803
   10   10    8    2        0.0000000004
   10   10    8    3       -0.0682164956
   10   10    8    6        0.0126095180
   10   10    8    7        0.0000000002
   10   10    8    8        0.3897854698
   10    4    9    4       -0.0623208568
   10    4    9    5        0.0567049657
   10    5    9    4       -0.0460246086
   10    5    9    5        0.0623208568
   10    9    9   10        0.0220915089
   10   10    9    9        0.4174345254
   10    1   10    1        0.0575414742
   10    1   10    3       -0.0101307971
   10    1   10    6        0.0171118070
   10    1   10    8       -0.0116032128
   10    2   10    2        0.0629039875
   10    2   10    7        0.0090579975
   10    2   10    8        0.0000000001
   10    3   10    1       -0.0101307971
   10    3   10    3        0.0114166784
   10    3   10    6       -0.0038339632
   10    3   10    8       -0.0072444789
   10    4   10    4        0.0790738598
   10    4   10    5        0.0623208568
   10    5   10    4        0.0623208568
   10    5   10    5        0.0683935027
   10    6   10    1        0.0171118070
   10    6   10    3       -0.0038339632
   10    6   10    6        0.0149717380
   10    6   10    8       -0.0015552154
   10    7   10    2        0.0090579975
   10    7   10    7        0.0174552095
   10    8   10    1       -0.0116032128
   10    8   10    2        0.0000000001
   10    8   10    3       -0.0072444789
   10    8   10    6       -0.0015552154
   10    8   10    8        0.0156376543
   10    9   10    9        0.0220915089
   10   10   10   10        0.4616175431
 end_two_electron_integrals

 Parallel integral file used      10 records with       0 large values


 Task  times  cpu:       35.6s     wall:       37.9s


                                NWChem Input Module
                                -------------------


 Summary of allocated global arrays
-----------------------------------
  No active global arrays


MA_summarize_allocated_blocks: starting scan ...
MA_summarize_allocated_blocks: scan completed: 0 heap blocks, 0 stack blocks
MA usage statistics:

	allocation statistics:
					      heap	     stack
					      ----	     -----
	current number of blocks	         0	         0
	maximum number of blocks	        18	        42
	current total bytes		         0	         0
	maximum total bytes		  51983048	9994007128
	maximum total K-bytes		     51984	   9994008
	maximum total M-bytes		        52	      9995


                                     CITATION
                                     --------
                Please cite the following reference when publishing
                           results obtained with NWChem:

          E. Apra, E. J. Bylaska, W. A. de Jong, N. Govind, K. Kowalski,
       T. P. Straatsma, M. Valiev, H. J. J. van Dam, Y. Alexeev, J. Anchell,
       V. Anisimov, F. W. Aquino, R. Atta-Fynn, J. Autschbach, N. P. Bauman,
     J. C. Becca, D. E. Bernholdt, K. Bhaskaran-Nair, S. Bogatko, P. Borowski,
         J. Boschen, J. Brabec, A. Bruner, E. Cauet, Y. Chen, G. N. Chuev,
      C. J. Cramer, J. Daily, M. J. O. Deegan, T. H. Dunning Jr., M. Dupuis,
   K. G. Dyall, G. I. Fann, S. A. Fischer, A. Fonari, H. Fruchtl, L. Gagliardi,
      J. Garza, N. Gawande, S. Ghosh, K. Glaesemann, A. W. Gotz, J. Hammond,
       V. Helms, E. D. Hermes, K. Hirao, S. Hirata, M. Jacquelin, L. Jensen,
   B. G. Johnson, H. Jonsson, R. A. Kendall, M. Klemm, R. Kobayashi, V. Konkov,
      S. Krishnamoorthy, M. Krishnan, Z. Lin, R. D. Lins, R. J. Littlefield,
      A. J. Logsdail, K. Lopata, W. Ma, A. V. Marenich, J. Martin del Campo,
   D. Mejia-Rodriguez, J. E. Moore, J. M. Mullin, T. Nakajima, D. R. Nascimento,
    J. A. Nichols, P. J. Nichols, J. Nieplocha, A. Otero-de-la-Roza, B. Palmer,
    A. Panyala, T. Pirojsirikul, B. Peng, R. Peverati, J. Pittner, L. Pollack,
   R. M. Richard, P. Sadayappan, G. C. Schatz, W. A. Shelton, D. W. Silverstein,
   D. M. A. Smith, T. A. Soares, D. Song, M. Swart, H. L. Taylor, G. S. Thomas,
            V. Tipparaju, D. G. Truhlar, K. Tsemekhman, T. Van Voorhis,
      A. Vazquez-Mayagoitia, P. Verma, O. Villa, A. Vishnu, K. D. Vogiatzis,
        D. Wang, J. H. Weare, M. J. Williamson, T. L. Windus, K. Wolinski,
        A. T. Wong, Q. Wu, C. Yang, Q. Yu, M. Zacharias, Z. Zhang, Y. Zhao,
                                and R. J. Harrison
                        "NWChem: Past, present, and future
                         J. Chem. Phys. 152, 184102 (2020)
                               doi:10.1063/5.0004997

                                      AUTHORS
                                      -------
  E. Apra, E. J. Bylaska, N. Govind, K. Kowalski, M. Valiev, D. Mejia-Rodriguez,
       A. Kunitsa, N. P. Bauman, A. Panyala, W. A. de Jong, T. P. Straatsma,
        H. J. J. van Dam, D. Wang, T. L. Windus, J. Hammond, J. Autschbach,
    K. Bhaskaran-Nair, J. Brabec, K. Lopata, S. A. Fischer, S. Krishnamoorthy,
     M. Jacquelin, W. Ma, M. Klemm, O. Villa, Y. Chen, V. Anisimov, F. Aquino,
    S. Hirata, M. T. Hackler, Eric Hermes, L. Jensen, J. E. Moore, J. C. Becca,
      V. Konjkov, T. Risthaus, M. Malagoli, A. Marenich, A. Otero-de-la-Roza,
        J. Mullin, P. Nichols, R. Peverati, J. Pittner, Y. Zhao, P.-D. Fan,
        A. Fonari, M. J. Williamson, R. J. Harrison, J. R. Rehr, M. Dupuis,
     D. Silverstein, D. M. A. Smith, J. Nieplocha, V. Tipparaju, M. Krishnan,
     B. E. Van Kuiken, A. Vazquez-Mayagoitia, M. Swart, Q. Wu, T. Van Voorhis,
     A. A. Auer, M. Nooijen, L. D. Crosby, E. Brown, G. Cisneros, G. I. Fann,
   H. Fruchtl, J. Garza, K. Hirao, R. A. Kendall, J. A. Nichols, K. Tsemekhman,
    K. Wolinski, J. Anchell, D. E. Bernholdt, P. Borowski, T. Clark, D. Clerc,
   H. Dachsel, M. J. O. Deegan, K. Dyall, D. Elwood, E. Glendening, M. Gutowski,
   A. C. Hess, J. Jaffe, B. G. Johnson, J. Ju, R. Kobayashi, R. Kutteh, Z. Lin,
   R. Littlefield, X. Long, B. Meng, T. Nakajima, S. Niu, L. Pollack, M. Rosing,
   K. Glaesemann, G. Sandrone, M. Stave, H. Taylor, G. Thomas, J. H. van Lenthe,
                               A. T. Wong, Z. Zhang.

 Total times  cpu:       36.7s     wall:       39.5s
