 argument  1 = input.nw
  NWChem w/ OpenMP: maximum threads =    1



============================== echo of input deck ==============================
 echo
 start H2O
 title "H2O"

 memory total 24 gb

 geometry units bohr
 symmetry c1
        O  0.00000000  0.00000000  0.00000000
        H  0.00000000  1.622236  0.00000000
        H  1.72558000 -0.64860000  0.00000000
 end

 basis spherical
   * library cc-pVTZ
 end

 mcscf
   active  8
   actelec 10
   multiplicity 1
   maxiter 40
   vectors input h2o.mos
   vectors output h2o.mos
 end

 task mcscf

 scf
   vectors input h2o.mos
   vectors output h2o-trash.mos
   noscf
 end

 tce
   2eorb
   2emet 13
   ccsd
 end

# set tce:print_integrals T
# set tce:qorb 8
# set tce:qela 5
# set tce:qelb 5

 set tce:qducc T
 set tce:nactv 3
 set tce:nonhf T
 set tce:ducc_model 6

 set tce:printtol 0.02

 task tce
================================================================================


                                         
                                         


             Northwest Computational Chemistry Package (NWChem) 7.0.1
             --------------------------------------------------------


                    Environmental Molecular Sciences Laboratory
                       Pacific Northwest National Laboratory
                                Richland, WA 99352

                              Copyright (c) 1994-2020
                       Pacific Northwest National Laboratory
                            Battelle Memorial Institute

             NWChem is an open-source computational chemistry package
                        distributed under the terms of the
                      Educational Community License (ECL) 2.0
             A copy of the license is included with this distribution
                              in the LICENSE.TXT file

                                  ACKNOWLEDGMENT
                                  --------------

            This software and its documentation were developed at the
            EMSL at Pacific Northwest National Laboratory, a multiprogram
            national laboratory, operated for the U.S. Department of Energy
            by Battelle under Contract Number DE-AC05-76RL01830. Support
            for this work was provided by the Department of Energy Office
            of Biological and Environmental Research, Office of Basic
            Energy Sciences, and the Office of Advanced Scientific Computing.


           Job information
           ---------------

    hostname        = WE46210
    program         = /home/baum612/code/nwchem/bin/LINUX64/nwchem
    date            = Mon Nov  6 22:10:27 2023

    compiled        = Mon_Nov_06_10:06:57_2023
    source          = /home/baum612/code/nwchem
    nwchem branch   = 7.0.0
    nwchem revision = nwchem_on_git-4191-g39d87d64de
    ga revision     = 5.8.1
    use scalapack   = F
    input           = input.nw
    prefix          = H2O.
    data base       = ./H2O.db
    status          = startup
    nproc           =        1
    time left       =     -1s



           Memory information
           ------------------

    heap     =  805306362 doubles =   6144.0 Mbytes
    stack    =  805306367 doubles =   6144.0 Mbytes
    global   = 1610612736 doubles =  12288.0 Mbytes (distinct from heap & stack)
    total    = 3221225465 doubles =  24576.0 Mbytes
    verify   = yes
    hardfail = no 


           Directory information
           ---------------------

  0 permanent = .
  0 scratch   = .




                                NWChem Input Module
                                -------------------


                                        H2O
                                        ---
 Turning off AUTOSYM since
 SYMMETRY directive was detected!


          ------
          auto-z
          ------
  no constraints, skipping    0.0000000000000000     
  no constraints, skipping    0.0000000000000000     


                             Geometry "geometry" -> ""
                             -------------------------

 Output coordinates in a.u. (scale by  1.000000000 to convert to a.u.)

  No.       Tag          Charge          X              Y              Z
 ---- ---------------- ---------- -------------- -------------- --------------
    1 O                    8.0000    -0.17255800    -0.09736360     0.00000000
    2 H                    1.0000    -0.17255800     1.52487240     0.00000000
    3 H                    1.0000     1.55302200    -0.74596360     0.00000000

      Atomic Mass 
      ----------- 

      O                 15.994910
      H                  1.007825


 Effective nuclear repulsion energy (a.u.)       9.6217760006

            Nuclear Dipole moment (a.u.) 
            ----------------------------
        X                 Y               Z
 ---------------- ---------------- ----------------
    -0.0000000000     0.0000000000     0.0000000000



                                Z-matrix (autoz)
                                -------- 

 Units are Angstrom for bonds and degrees for angles

      Type          Name      I     J     K     L     M      Value
      ----------- --------  ----- ----- ----- ----- ----- ----------
    1 Stretch                  1     2                       0.85845
    2 Stretch                  1     3                       0.97551
    3 Bend                     2     1     3               110.59992


            XYZ format geometry
            -------------------
     3
 geometry
 O                    -0.09131377    -0.05152260     0.00000000
 H                    -0.09131377     0.80692778     0.00000000
 H                     0.82182391    -0.39474697     0.00000000

 ==============================================================================
                                internuclear distances
 ------------------------------------------------------------------------------
       center one      |      center two      | atomic units |       a.u.
 ------------------------------------------------------------------------------
    2 H                |   1 O                |     1.62224  |     1.62224
    3 H                |   1 O                |     1.84345  |     1.84345
 ------------------------------------------------------------------------------
                         number of included internuclear distances:          2
 ==============================================================================



 ==============================================================================
                                 internuclear angles
 ------------------------------------------------------------------------------
        center 1       |       center 2       |       center 3       |  degrees
 ------------------------------------------------------------------------------
    2 H                |   1 O                |   3 H                |   110.60
 ------------------------------------------------------------------------------
                            number of included internuclear angles:          1
 ==============================================================================





 Summary of "ao basis" -> "" (spherical)
 ------------------------------------------------------------------------------
       Tag                 Description            Shells   Functions and Types
 ---------------- ------------------------------  ------  ---------------------
 *                          cc-pVTZ                   on all atoms 


                      Basis "ao basis" -> "ao basis" (spherical)
                      -----
  O (Oxygen)
  ----------
            Exponent  Coefficients 
       -------------- ---------------------------------------------------------
  1 S  1.53300000E+04  0.000508
  1 S  2.29900000E+03  0.003929
  1 S  5.22400000E+02  0.020243
  1 S  1.47300000E+02  0.079181
  1 S  4.75500000E+01  0.230687
  1 S  1.67600000E+01  0.433118
  1 S  6.20700000E+00  0.350260
  1 S  6.88200000E-01 -0.008154

  2 S  1.53300000E+04 -0.000115
  2 S  2.29900000E+03 -0.000895
  2 S  5.22400000E+02 -0.004636
  2 S  1.47300000E+02 -0.018724
  2 S  4.75500000E+01 -0.058463
  2 S  1.67600000E+01 -0.136463
  2 S  6.20700000E+00 -0.175740
  2 S  6.88200000E-01  0.603418

  3 S  1.75200000E+00  1.000000

  4 S  2.38400000E-01  1.000000

  5 P  3.44600000E+01  0.015928
  5 P  7.74900000E+00  0.099740
  5 P  2.28000000E+00  0.310492

  6 P  7.15600000E-01  1.000000

  7 P  2.14000000E-01  1.000000

  8 D  2.31400000E+00  1.000000

  9 D  6.45000000E-01  1.000000

 10 F  1.42800000E+00  1.000000

  H (Hydrogen)
  ------------
            Exponent  Coefficients 
       -------------- ---------------------------------------------------------
  1 S  3.38700000E+01  0.006068
  1 S  5.09500000E+00  0.045308
  1 S  1.15900000E+00  0.202822

  2 S  3.25800000E-01  1.000000

  3 S  1.02700000E-01  1.000000

  4 P  1.40700000E+00  1.000000

  5 P  3.88000000E-01  1.000000

  6 D  1.05700000E+00  1.000000



 Summary of "ao basis" -> "ao basis" (spherical)
 ------------------------------------------------------------------------------
       Tag                 Description            Shells   Functions and Types
 ---------------- ------------------------------  ------  ---------------------
 O                          cc-pVTZ                 10       30   4s3p2d1f
 H                          cc-pVTZ                  6       14   3s2p1d



                            NWChem Direct MCSCF Module
                            --------------------------


                                        H2O


     -----------------------------------
       Basis functions:             58
       Inactive shells:              0
       Active shells:                8
       Active electrons:            10
       Symmetry:                    a       
       Multiplicity:                 1
       Orbital rotations:          400
     -----------------------------------

     -----------------------------------
       E2 extrapolation:             F
       Conjugacy:                    T
       Micro CI relax:               T
       Canonical orbitals:           T
       Maximum iterations:          40
       Converge threshold:    1.00E-04
       Conjugacy resets:            20
       Initial levelshift:        0.10
     -----------------------------------

 Loading old vectors from job with title :

H2O


   input molecular orbitals = ./h2o.mos
  output molecular orbtials = ./h2o.mos

       No. of determinants:          3136


  Starting Orbital Energies
   -20.535865    -1.369587    -0.763708    -0.589292    -0.528332    -0.025628
    -0.021845    -0.016008     0.284946     0.335355     0.614303     0.652951
     0.809649     0.852887     0.974010     1.093104     1.196426     1.375134
     1.492254     2.006552     2.008756     2.089735     2.141848     2.192007
     2.619867     2.891238     3.392942     3.526698     3.530721     3.584231
     3.649064     3.869748     3.932192     3.954211     3.991594     4.043375
     4.182696     4.396868     4.474055     4.531615     4.681475     4.882883
     5.292226     5.309994     5.562256     6.071418     6.571830     6.892350
     6.922743     7.013156     7.083622     7.132944     7.390093     7.430089
     7.515062     7.890493     8.359438    13.472090

  Orbital Symmetry Irreps
a    a    a    a    a    a    a    a    a    a    a    a    a    a    a   
a    a    a    a    a    a    a    a    a    a    a    a    a    a    a   
a    a    a    a    a    a    a    a    a    a    a    a    a    a    a   
a    a    a    a    a    a    a    a    a    a    a    a    a   

 Integral file          = ./H2O.aoints.0
 Record size in doubles =  65536        No. of integs per rec  =  43688
 Max. records in memory =     49        Max. records in file   = 280281
 No. of bits per label  =      8        No. of bits per value  =     64


 #quartets = 3.213D+04 #integrals = 6.608D+05 #direct =  0.0% #cached =100.0%




          %%%%% MacroIteration   1 %%%%%


          Number of sigma calls:       15
                       o<<<<< (aa):             0.00
                       o<<<<< (bb):             0.00
                       o<<<<< (ab):             0.05
                       o<<<<< (total)           0.06
                       o<<<<< (aa) ff           0.00
                       o<<<<< (aa) gop          0.00
                       o<<<<< (aa) dot          0.00
                       o<<<<< (ab) str          0.00
                       o<<<<< (ab) gath         0.00
                       o<<<<< (ab) dotab        0.00
                       o<<<<< (ab) scat         0.00
                       o<<<<< (ab) sync         0.00
                       o<<<<< Density           0.01
                       o<<<<< Density one       0.00
                       o<<<<< Density two       0.00
                       o<<<<< Density ab        0.01
                       o<<<<< Spin adapt        0.33
                       o<<<<< Symm adapt        0.00

                       o<<<<< (ab) max sync:      0.00

           >>>| Valence CI:            -85.756996766050
           >>>| MCSCF energy:          -76.135220765445
           >>>| Gradient norm:          0.566942079D-01

                              ----- Line search ------

        step       energy         lsg     num-lsg   num-lsh   lsrat    time
      ------- ---------------- --------- --------- --------- ------- --------
       0.0000     -76.13522077 -2.54D-04  0.00D+00  0.00D+00 0.0D+00      1.0

          Number of sigma calls:       16
                       o<<<<< (aa):             0.00
                       o<<<<< (bb):             0.00
                       o<<<<< (ab):             0.05
                       o<<<<< (total)           0.06
                       o<<<<< (aa) ff           0.00
                       o<<<<< (aa) gop          0.00
                       o<<<<< (aa) dot          0.00
                       o<<<<< (ab) str          0.00
                       o<<<<< (ab) gath         0.00
                       o<<<<< (ab) dotab        0.00
                       o<<<<< (ab) scat         0.00
                       o<<<<< (ab) sync         0.00
                       o<<<<< Density           0.01
                       o<<<<< Density one       0.00
                       o<<<<< Density two       0.00
                       o<<<<< Density ab        0.01
                       o<<<<< Spin adapt        0.38
                       o<<<<< Symm adapt        0.00

                       o<<<<< (ab) max sync:      0.00
       1.0000     -76.13535156 -7.70D-06 -7.76D-06  2.46D-04 3.0D-02      1.6
     --- Orbitals canonicalized ---



          %%%%% MacroIteration   2 %%%%%


          Number of sigma calls:       11
                       o<<<<< (aa):             0.00
                       o<<<<< (bb):             0.00
                       o<<<<< (ab):             0.03
                       o<<<<< (total)           0.03
                       o<<<<< (aa) ff           0.00
                       o<<<<< (aa) gop          0.00
                       o<<<<< (aa) dot          0.00
                       o<<<<< (ab) str          0.00
                       o<<<<< (ab) gath         0.00
                       o<<<<< (ab) dotab        0.00
                       o<<<<< (ab) scat         0.00
                       o<<<<< (ab) sync         0.00
                       o<<<<< Density           0.00
                       o<<<<< Density one       0.00
                       o<<<<< Density two       0.00
                       o<<<<< Density ab        0.00
                       o<<<<< Spin adapt        0.12
                       o<<<<< Symm adapt        0.00

                       o<<<<< (ab) max sync:      0.00

           >>>| Valence CI:            -85.757127563813
           >>>| MCSCF energy:          -76.135351563209
           >>>| Gradient norm:          0.384252509D-02
     --- Warning:    2 Hessian diagonals < 0.05 ---
     --- Conjugacy reset ---

                              ----- Line search ------

        step       energy         lsg     num-lsg   num-lsh   lsrat    time
      ------- ---------------- --------- --------- --------- ------- --------
       0.0000     -76.13535156 -2.57D-06  0.00D+00  0.00D+00 0.0D+00      1.9

          Number of sigma calls:       11
                       o<<<<< (aa):             0.00
                       o<<<<< (bb):             0.00
                       o<<<<< (ab):             0.04
                       o<<<<< (total)           0.04
                       o<<<<< (aa) ff           0.00
                       o<<<<< (aa) gop          0.00
                       o<<<<< (aa) dot          0.00
                       o<<<<< (ab) str          0.00
                       o<<<<< (ab) gath         0.00
                       o<<<<< (ab) dotab        0.00
                       o<<<<< (ab) scat         0.00
                       o<<<<< (ab) sync         0.00
                       o<<<<< Density           0.01
                       o<<<<< Density one       0.00
                       o<<<<< Density two       0.00
                       o<<<<< Density ab        0.01
                       o<<<<< Spin adapt        0.26
                       o<<<<< Symm adapt        0.00

                       o<<<<< (ab) max sync:      0.00
       1.0000     -76.13535332 -9.46D-07 -9.45D-07  1.62D-06 3.7D-01      2.3

          Number of sigma calls:       10
                       o<<<<< (aa):             0.00
                       o<<<<< (bb):             0.00
                       o<<<<< (ab):             0.03
                       o<<<<< (total)           0.04
                       o<<<<< (aa) ff           0.00
                       o<<<<< (aa) gop          0.00
                       o<<<<< (aa) dot          0.00
                       o<<<<< (ab) str          0.00
                       o<<<<< (ab) gath         0.00
                       o<<<<< (ab) dotab        0.00
                       o<<<<< (ab) scat         0.00
                       o<<<<< (ab) sync         0.00
                       o<<<<< Density           0.01
                       o<<<<< Density one       0.00
                       o<<<<< Density two       0.00
                       o<<<<< Density ab        0.01
                       o<<<<< Spin adapt        0.16
                       o<<<<< Symm adapt        0.00

                       o<<<<< (ab) max sync:      0.00
       1.5822     -76.13535360 -4.89D-09 -4.59D-09  1.62D-06 1.9D-03      2.6



          %%%%% MacroIteration   3 %%%%%


          Number of sigma calls:        1
                       o<<<<< (aa):             0.00
                       o<<<<< (bb):             0.00
                       o<<<<< (ab):             0.00
                       o<<<<< (total)           0.00
                       o<<<<< (aa) ff           0.00
                       o<<<<< (aa) gop          0.00
                       o<<<<< (aa) dot          0.00
                       o<<<<< (ab) str          0.00
                       o<<<<< (ab) gath         0.00
                       o<<<<< (ab) dotab        0.00
                       o<<<<< (ab) scat         0.00
                       o<<<<< (ab) sync         0.00
                       o<<<<< Density           0.01
                       o<<<<< Density one       0.00
                       o<<<<< Density two       0.00
                       o<<<<< Density ab        0.01
                       o<<<<< Spin adapt        0.00
                       o<<<<< Symm adapt        0.00

                       o<<<<< (ab) max sync:      0.00

           >>>| Valence CI:            -85.757129597523
           >>>| MCSCF energy:          -76.135353596918
           >>>| Gradient norm:          0.742466946D-03
     --- Warning:    2 Hessian diagonals < 0.05 ---

                              ----- Line search ------

        step       energy         lsg     num-lsg   num-lsh   lsrat    time
      ------- ---------------- --------- --------- --------- ------- --------
       0.0000     -76.13535360 -2.57D-07  0.00D+00  0.00D+00 0.0D+00      2.7

          Number of sigma calls:       10
                       o<<<<< (aa):             0.00
                       o<<<<< (bb):             0.00
                       o<<<<< (ab):             0.03
                       o<<<<< (total)           0.04
                       o<<<<< (aa) ff           0.00
                       o<<<<< (aa) gop          0.00
                       o<<<<< (aa) dot          0.00
                       o<<<<< (ab) str          0.00
                       o<<<<< (ab) gath         0.00
                       o<<<<< (ab) dotab        0.00
                       o<<<<< (ab) scat         0.00
                       o<<<<< (ab) sync         0.00
                       o<<<<< Density           0.01
                       o<<<<< Density one       0.00
                       o<<<<< Density two       0.00
                       o<<<<< Density ab        0.00
                       o<<<<< Spin adapt        0.21
                       o<<<<< Symm adapt        0.00

                       o<<<<< (ab) max sync:      0.00
       1.0000     -76.13535380 -1.43D-07 -1.43D-07  1.15D-07 5.5D-01      3.0

          Number of sigma calls:       10
                       o<<<<< (aa):             0.00
                       o<<<<< (bb):             0.00
                       o<<<<< (ab):             0.03
                       o<<<<< (total)           0.03
                       o<<<<< (aa) ff           0.00
                       o<<<<< (aa) gop          0.00
                       o<<<<< (aa) dot          0.00
                       o<<<<< (ab) str          0.00
                       o<<<<< (ab) gath         0.00
                       o<<<<< (ab) dotab        0.00
                       o<<<<< (ab) scat         0.00
                       o<<<<< (ab) sync         0.00
                       o<<<<< Density           0.01
                       o<<<<< Density one       0.00
                       o<<<<< Density two       0.00
                       o<<<<< Density ab        0.01
                       o<<<<< Spin adapt        0.26
                       o<<<<< Symm adapt        0.00

                       o<<<<< (ab) max sync:      0.00
       2.2422     -76.13535389 -2.16D-10 -1.96D-10  1.15D-07 8.4D-04      3.5



          %%%%% MacroIteration   4 %%%%%


          Number of sigma calls:        1
                       o<<<<< (aa):             0.00
                       o<<<<< (bb):             0.00
                       o<<<<< (ab):             0.00
                       o<<<<< (total)           0.00
                       o<<<<< (aa) ff           0.00
                       o<<<<< (aa) gop          0.00
                       o<<<<< (aa) dot          0.00
                       o<<<<< (ab) str          0.00
                       o<<<<< (ab) gath         0.00
                       o<<<<< (ab) dotab        0.00
                       o<<<<< (ab) scat         0.00
                       o<<<<< (ab) sync         0.00
                       o<<<<< Density           0.00
                       o<<<<< Density one       0.00
                       o<<<<< Density two       0.00
                       o<<<<< Density ab        0.00
                       o<<<<< Spin adapt        0.00
                       o<<<<< Symm adapt        0.00

                       o<<<<< (ab) max sync:      0.00

           >>>| Valence CI:            -85.757129886297
           >>>| MCSCF energy:          -76.135353885691
           >>>| Gradient norm:          0.733024547D-03
     --- Warning:    2 Hessian diagonals < 0.05 ---

                              ----- Line search ------

        step       energy         lsg     num-lsg   num-lsh   lsrat    time
      ------- ---------------- --------- --------- --------- ------- --------
       0.0000     -76.13535389 -1.32D-07  0.00D+00  0.00D+00 0.0D+00      3.6

          Number of sigma calls:       10
                       o<<<<< (aa):             0.00
                       o<<<<< (bb):             0.00
                       o<<<<< (ab):             0.03
                       o<<<<< (total)           0.03
                       o<<<<< (aa) ff           0.00
                       o<<<<< (aa) gop          0.00
                       o<<<<< (aa) dot          0.00
                       o<<<<< (ab) str          0.00
                       o<<<<< (ab) gath         0.00
                       o<<<<< (ab) dotab        0.00
                       o<<<<< (ab) scat         0.00
                       o<<<<< (ab) sync         0.00
                       o<<<<< Density           0.01
                       o<<<<< Density one       0.00
                       o<<<<< Density two       0.00
                       o<<<<< Density ab        0.01
                       o<<<<< Spin adapt        0.14
                       o<<<<< Symm adapt        0.00

                       o<<<<< (ab) max sync:      0.00
       1.0000     -76.13535399 -6.83D-08 -6.82D-08  6.39D-08 5.2D-01      3.8

          Number of sigma calls:       10
                       o<<<<< (aa):             0.00
                       o<<<<< (bb):             0.00
                       o<<<<< (ab):             0.03
                       o<<<<< (total)           0.04
                       o<<<<< (aa) ff           0.00
                       o<<<<< (aa) gop          0.00
                       o<<<<< (aa) dot          0.00
                       o<<<<< (ab) str          0.00
                       o<<<<< (ab) gath         0.00
                       o<<<<< (ab) dotab        0.00
                       o<<<<< (ab) scat         0.00
                       o<<<<< (ab) sync         0.00
                       o<<<<< Density           0.00
                       o<<<<< Density one       0.00
                       o<<<<< Density two       0.00
                       o<<<<< Density ab        0.00
                       o<<<<< Spin adapt        0.31
                       o<<<<< Symm adapt        0.00

                       o<<<<< (ab) max sync:      0.00
       2.0689     -76.13535402 -1.13D-10 -1.04D-10  6.37D-08 8.6D-04      4.2



          %%%%% MacroIteration   5 %%%%%


          Number of sigma calls:        1
                       o<<<<< (aa):             0.00
                       o<<<<< (bb):             0.00
                       o<<<<< (ab):             0.00
                       o<<<<< (total)           0.00
                       o<<<<< (aa) ff           0.00
                       o<<<<< (aa) gop          0.00
                       o<<<<< (aa) dot          0.00
                       o<<<<< (ab) str          0.00
                       o<<<<< (ab) gath         0.00
                       o<<<<< (ab) dotab        0.00
                       o<<<<< (ab) scat         0.00
                       o<<<<< (ab) sync         0.00
                       o<<<<< Density           0.01
                       o<<<<< Density one       0.00
                       o<<<<< Density two       0.00
                       o<<<<< Density ab        0.01
                       o<<<<< Spin adapt        0.00
                       o<<<<< Symm adapt        0.00

                       o<<<<< (ab) max sync:      0.00

           >>>| Valence CI:            -85.757130023000
           >>>| MCSCF energy:          -76.135354022395
           >>>| Gradient norm:          0.244852205D-03
     --- Warning:    2 Hessian diagonals < 0.05 ---

                              ----- Line search ------

        step       energy         lsg     num-lsg   num-lsh   lsrat    time
      ------- ---------------- --------- --------- --------- ------- --------
       0.0000     -76.13535402 -6.68D-09  0.00D+00  0.00D+00 0.0D+00      4.3

          Number of sigma calls:        8
                       o<<<<< (aa):             0.00
                       o<<<<< (bb):             0.00
                       o<<<<< (ab):             0.02
                       o<<<<< (total)           0.03
                       o<<<<< (aa) ff           0.00
                       o<<<<< (aa) gop          0.00
                       o<<<<< (aa) dot          0.00
                       o<<<<< (ab) str          0.00
                       o<<<<< (ab) gath         0.00
                       o<<<<< (ab) dotab        0.00
                       o<<<<< (ab) scat         0.00
                       o<<<<< (ab) sync         0.00
                       o<<<<< Density           0.00
                       o<<<<< Density one       0.00
                       o<<<<< Density two       0.00
                       o<<<<< Density ab        0.00
                       o<<<<< Spin adapt        0.14
                       o<<<<< Symm adapt        0.00

                       o<<<<< (ab) max sync:      0.00
       1.0000     -76.13535403 -1.53D-09 -1.53D-09  5.15D-09 2.3D-01      4.5

          Number of sigma calls:        7
                       o<<<<< (aa):             0.00
                       o<<<<< (bb):             0.00
                       o<<<<< (ab):             0.02
                       o<<<<< (total)           0.02
                       o<<<<< (aa) ff           0.00
                       o<<<<< (aa) gop          0.00
                       o<<<<< (aa) dot          0.00
                       o<<<<< (ab) str          0.00
                       o<<<<< (ab) gath         0.00
                       o<<<<< (ab) dotab        0.00
                       o<<<<< (ab) scat         0.00
                       o<<<<< (ab) sync         0.00
                       o<<<<< Density           0.01
                       o<<<<< Density one       0.00
                       o<<<<< Density two       0.00
                       o<<<<< Density ab        0.01
                       o<<<<< Spin adapt        0.13
                       o<<<<< Symm adapt        0.00

                       o<<<<< (ab) max sync:      0.00
       1.2981     -76.13535403 -2.83D-14  5.97D-13  5.15D-09 4.2D-06      4.7



          %%%%% MacroIteration   6 %%%%%


          Number of sigma calls:        1
                       o<<<<< (aa):             0.00
                       o<<<<< (bb):             0.00
                       o<<<<< (ab):             0.00
                       o<<<<< (total)           0.00
                       o<<<<< (aa) ff           0.00
                       o<<<<< (aa) gop          0.00
                       o<<<<< (aa) dot          0.00
                       o<<<<< (ab) str          0.00
                       o<<<<< (ab) gath         0.00
                       o<<<<< (ab) dotab        0.00
                       o<<<<< (ab) scat         0.00
                       o<<<<< (ab) sync         0.00
                       o<<<<< Density           0.01
                       o<<<<< Density one       0.00
                       o<<<<< Density two       0.00
                       o<<<<< Density ab        0.01
                       o<<<<< Spin adapt        0.00
                       o<<<<< Symm adapt        0.00

                       o<<<<< (ab) max sync:      0.00

           >>>| Valence CI:            -85.757130027335
           >>>| MCSCF energy:          -76.135354026731
           >>>| Gradient norm:          0.195583688D-04




     ==============================
            MCSCF Converged
     ==============================



          Canonical Eigenvalues

              1      
    1  -20.5340
    2   -1.3762
    3   -0.7694
    4   -0.5908
    5   -0.5293
    6   -0.0256
    7   -0.0211
    8   -0.0160
    9    0.2822
   10    0.3352
   11    0.6159
   12    0.6528
   13    0.8096
   14    0.8547
   15    0.9740
   16    1.0856
   17    1.2022
   18    1.3730
   19    1.5172
   20    2.0019
   21    2.0080
   22    2.0940
   23    2.1429
   24    2.1897
   25    2.6240
   26    2.8943
   27    3.3964
   28    3.5259
   29    3.5358
   30    3.5942
   31    3.6616
   32    3.8683
   33    3.9423
   34    3.9594
   35    3.9907
   36    4.0404
   37    4.1980
   38    4.4112
   39    4.4875
   40    4.5576
   41    4.6945
   42    4.8837
   43    5.3058
   44    5.3792
   45    5.5829
   46    6.0946
   47    6.6051
   48    6.8826
   49    6.9175
   50    7.0118
   51    7.0858
   52    7.1476
   53    7.4578
   54    7.5245
   55    7.5279
   56    7.9400
   57    8.4029
   58   13.6651


          Converged CI vector

   Index           Coefficient          Config. Occupation
         1          0.97861325          1  2  3  4  5  1  2  3  4  5
        22         -0.06774004          1  2  3  4  5  1  2  3  4  8
         3         -0.03453593          1  2  3  4  5  1  2  3  5  6
         8         -0.02571308          1  2  3  4  5  1  2  3  5  7
         4         -0.02554836          1  2  3  4  5  1  2  4  5  6
         9          0.03071798          1  2  3  4  5  1  2  4  5  7
        38         -0.02022975          1  2  3  4  5  1  2  4  7  8
      1177         -0.06774004          1  2  3  4  8  1  2  3  4  5
      1198         -0.05101576          1  2  3  4  8  1  2  3  4  8
      1179         -0.02224251          1  2  3  4  8  1  2  3  5  6
      1180         -0.02285988          1  2  3  4  8  1  2  4  5  6
      1185          0.02672792          1  2  3  4  8  1  2  4  5  7
       113         -0.03453593          1  2  3  5  6  1  2  3  4  5
       134         -0.02224251          1  2  3  5  6  1  2  3  4  8
       115         -0.03514527          1  2  3  5  6  1  2  3  5  6
       116         -0.02892223          1  2  3  5  6  1  2  4  5  6
       393         -0.02571308          1  2  3  5  7  1  2  3  4  5
       400         -0.02064514          1  2  3  5  7  1  2  3  5  7
       401          0.02107315          1  2  3  5  7  1  2  4  5  7
       169         -0.02554836          1  2  4  5  6  1  2  3  4  5
       190         -0.02285988          1  2  4  5  6  1  2  3  4  8
       171         -0.02892223          1  2  4  5  6  1  2  3  5  6
       172         -0.03980320          1  2  4  5  6  1  2  4  5  6
       173         -0.02124683          1  2  4  5  6  1  3  4  5  6
       449          0.03071798          1  2  4  5  7  1  2  3  4  5
       470          0.02672792          1  2  4  5  7  1  2  3  4  8
       456          0.02107315          1  2  4  5  7  1  2  3  5  7
       457         -0.03869055          1  2  4  5  7  1  2  4  5  7
      2073         -0.02022975          1  2  4  7  8  1  2  3  4  5
       228         -0.02124683          1  3  4  5  6  1  2  4  5  6
       229         -0.02116144          1  3  4  5  6  1  3  4  5  6

          Number of sigma calls:        1
                       o<<<<< (aa):             0.00
                       o<<<<< (bb):             0.00
                       o<<<<< (ab):             0.00
                       o<<<<< (total)           0.00
                       o<<<<< (aa) ff           0.00
                       o<<<<< (aa) gop          0.00
                       o<<<<< (aa) dot          0.00
                       o<<<<< (ab) str          0.00
                       o<<<<< (ab) gath         0.00
                       o<<<<< (ab) dotab        0.00
                       o<<<<< (ab) scat         0.00
                       o<<<<< (ab) sync         0.00
                       o<<<<< Density           0.01
                       o<<<<< Density one       0.00
                       o<<<<< Density two       0.00
                       o<<<<< Density ab        0.01
                       o<<<<< Spin adapt        0.00
                       o<<<<< Symm adapt        0.00

                       o<<<<< (ab) max sync:      0.00



          Natural orbital occupation numbers

              1      
    1    2.0000
    2    1.9991
    3    1.9833
    4    1.9827
    5    1.9776
    6    0.0231
    7    0.0177
    8    0.0165


          Number of sigma calls:       15
                       o<<<<< (aa):             0.00
                       o<<<<< (bb):             0.00
                       o<<<<< (ab):             0.03
                       o<<<<< (total)           0.03
                       o<<<<< (aa) ff           0.00
                       o<<<<< (aa) gop          0.00
                       o<<<<< (aa) dot          0.00
                       o<<<<< (ab) str          0.00
                       o<<<<< (ab) gath         0.00
                       o<<<<< (ab) dotab        0.00
                       o<<<<< (ab) scat         0.00
                       o<<<<< (ab) sync         0.00
                       o<<<<< Density           0.01
                       o<<<<< Density one       0.00
                       o<<<<< Density two       0.00
                       o<<<<< Density ab        0.01
                       o<<<<< Spin adapt        0.22
                       o<<<<< Symm adapt        0.00

                       o<<<<< (ab) max sync:      0.00


       Final MCSCF results 
       ------------------- 

       Total MCSCF energy =    -76.135354026730
            Gradient norm =      2.0D-05

    CPU time for solution =      5.2s
   Wall time for solution =      8.7s



                        Analysis of MCSCF natural orbitals
                        ----------------------------------

 Vector    1  Occ=1.999988D+00  E=-2.053404D+01  Symmetry=a
              MO Center= -9.2D-02, -5.2D-02,  4.4D-10, r^2= 1.9D-02
   Bfn.  Coefficient  Atom+Function         Bfn.  Coefficient  Atom+Function  
  ----- ------------  ---------------      ----- ------------  ---------------
     1      0.969736  1 O  s          

 Vector    2  Occ=1.999104D+00  E=-1.376180D+00  Symmetry=a
              MO Center= -3.1D-01, -1.8D-01,  2.6D-07, r^2= 4.2D-01
   Bfn.  Coefficient  Atom+Function         Bfn.  Coefficient  Atom+Function  
  ----- ------------  ---------------      ----- ------------  ---------------
     2      0.504828  1 O  s                  4      0.380121  1 O  s          

 Vector    3  Occ=1.983253D+00  E=-7.694295D-01  Symmetry=a
              MO Center= -6.4D-02, -3.0D-02, -5.8D-07, r^2= 6.5D-01
   Bfn.  Coefficient  Atom+Function         Bfn.  Coefficient  Atom+Function  
  ----- ------------  ---------------      ----- ------------  ---------------
    10      0.429461  1 O  pz                13      0.384510  1 O  pz         
     7      0.358198  1 O  pz         

 Vector    4  Occ=1.982727D+00  E=-5.907606D-01  Symmetry=a
              MO Center= -4.0D-02,  3.3D-01,  7.1D-08, r^2= 5.4D-01
   Bfn.  Coefficient  Atom+Function         Bfn.  Coefficient  Atom+Function  
  ----- ------------  ---------------      ----- ------------  ---------------
     9      0.330479  1 O  py                 6      0.291898  1 O  py         
    32      0.261946  2 H  s                 31      0.203801  2 H  s          
    12      0.171947  1 O  py         

 Vector    5  Occ=1.977630D+00  E=-5.293413D-01  Symmetry=a
              MO Center=  3.5D-01, -1.7D-01, -4.6D-08, r^2= 5.9D-01
   Bfn.  Coefficient  Atom+Function         Bfn.  Coefficient  Atom+Function  
  ----- ------------  ---------------      ----- ------------  ---------------
     8      0.331982  1 O  px                 5      0.276394  1 O  px         
    46      0.263973  3 H  s                 11      0.191674  1 O  px         
    45      0.184547  3 H  s          

 Vector    6  Occ=2.306317D-02  E=-2.560825D-02  Symmetry=a
              MO Center=  5.1D-01, -2.1D-01, -7.9D-08, r^2= 6.2D-01
   Bfn.  Coefficient  Atom+Function         Bfn.  Coefficient  Atom+Function  
  ----- ------------  ---------------      ----- ------------  ---------------
    46      0.664034  3 H  s                  5     -0.529999  1 O  px         
     8     -0.424364  1 O  px                 2     -0.318068  1 O  s          
    45      0.300135  3 H  s                  4     -0.169842  1 O  s          
     3     -0.165700  1 O  s          

 Vector    7  Occ=1.773091D-02  E=-2.114340D-02  Symmetry=a
              MO Center= -2.1D-02,  4.9D-01, -4.2D-08, r^2= 6.4D-01
   Bfn.  Coefficient  Atom+Function         Bfn.  Coefficient  Atom+Function  
  ----- ------------  ---------------      ----- ------------  ---------------
    32      0.686440  2 H  s                  6     -0.592493  1 O  py         
     9     -0.389333  1 O  py                31      0.296944  2 H  s          
     2     -0.264191  1 O  s                  4     -0.250955  1 O  s          
     3     -0.159248  1 O  s          

 Vector    8  Occ=1.650321D-02  E=-1.599512D-02  Symmetry=a
              MO Center= -2.9D-03,  4.5D-03, -3.0D-07, r^2= 1.1D+00
   Bfn.  Coefficient  Atom+Function         Bfn.  Coefficient  Atom+Function  
  ----- ------------  ---------------      ----- ------------  ---------------
    13      0.757800  1 O  pz                 7     -0.664078  1 O  pz         
    10     -0.288515  1 O  pz         

 Vector    9  Occ=0.000000D+00  E= 2.821713D-01  Symmetry=a
              MO Center=  1.5D-01,  3.3D-01,  1.9D-07, r^2= 4.7D+00
   Bfn.  Coefficient  Atom+Function         Bfn.  Coefficient  Atom+Function  
  ----- ------------  ---------------      ----- ------------  ---------------
     4      2.694453  1 O  s                 33     -1.391888  2 H  s          
    47     -0.947122  3 H  s                 32     -0.743272  2 H  s          
    12      0.709977  1 O  py                11      0.659418  1 O  px         
    38      0.599786  2 H  py                51      0.392213  3 H  px         
    46     -0.280626  3 H  s                 52     -0.156836  3 H  py         

 Vector   10  Occ=0.000000D+00  E= 3.351529D-01  Symmetry=a
              MO Center=  6.8D-01,  1.4D-01,  4.3D-08, r^2= 5.5D+00
   Bfn.  Coefficient  Atom+Function         Bfn.  Coefficient  Atom+Function  
  ----- ------------  ---------------      ----- ------------  ---------------
    47     -2.195826  3 H  s                 33      2.041895  2 H  s          
    12     -0.748879  1 O  py                11      0.492903  1 O  px         
    46      0.370953  3 H  s                 38     -0.349699  2 H  py         
    51      0.328088  3 H  px         

 Vector   11  Occ=0.000000D+00  E= 6.158986D-01  Symmetry=a
              MO Center=  2.4D-01, -4.9D-02,  1.1D-08, r^2= 2.0D+00
   Bfn.  Coefficient  Atom+Function         Bfn.  Coefficient  Atom+Function  
  ----- ------------  ---------------      ----- ------------  ---------------
     4      3.626770  1 O  s                 32     -3.435292  2 H  s          
    12      1.846180  1 O  py                46     -1.576784  3 H  s          
    11      1.006011  1 O  px                38      0.690160  2 H  py         
    51      0.380620  3 H  px                47      0.244222  3 H  s          
     2      0.214273  1 O  s                  9      0.190845  1 O  py         

 Vector   12  Occ=0.000000D+00  E= 6.528068D-01  Symmetry=a
              MO Center= -4.0D-01, -2.7D-02,  5.1D-08, r^2= 2.4D+00
   Bfn.  Coefficient  Atom+Function         Bfn.  Coefficient  Atom+Function  
  ----- ------------  ---------------      ----- ------------  ---------------
    46      2.756907  3 H  s                 11     -2.210990  1 O  px         
    12      2.078136  1 O  py                32     -1.525322  2 H  s          
    33     -0.885894  2 H  s                 51     -0.826618  3 H  px         
    47      0.809572  3 H  s                  4     -0.792285  1 O  s          
    38      0.470933  2 H  py                23     -0.327764  1 O  d  2       

 Vector   13  Occ=0.000000D+00  E= 8.096096D-01  Symmetry=a
              MO Center= -1.6D-01, -1.5D-01,  9.4D-08, r^2= 2.1D+00
   Bfn.  Coefficient  Atom+Function         Bfn.  Coefficient  Atom+Function  
  ----- ------------  ---------------      ----- ------------  ---------------
     4      1.768799  1 O  s                 32     -1.589399  2 H  s          
    11      1.574234  1 O  px                12      1.229635  1 O  py         
    46     -1.178880  3 H  s                 37     -0.999954  2 H  px         
    52     -0.973064  3 H  py                38      0.327677  2 H  py         
     2      0.189474  1 O  s                 19      0.186756  1 O  d -2       

 Vector   14  Occ=0.000000D+00  E= 8.547091D-01  Symmetry=a
              MO Center=  4.1D-01,  1.4D-01,  1.7D-07, r^2= 1.7D+00
   Bfn.  Coefficient  Atom+Function         Bfn.  Coefficient  Atom+Function  
  ----- ------------  ---------------      ----- ------------  ---------------
    53     -0.904185  3 H  pz                39      0.824033  2 H  pz         

 Vector   15  Occ=0.000000D+00  E= 9.740411D-01  Symmetry=a
              MO Center=  1.6D-02,  7.6D-02,  1.1D-06, r^2= 2.0D+00
   Bfn.  Coefficient  Atom+Function         Bfn.  Coefficient  Atom+Function  
  ----- ------------  ---------------      ----- ------------  ---------------
    13      1.388967  1 O  pz                39     -1.171140  2 H  pz         
    53     -0.929476  3 H  pz         

 Vector   16  Occ=0.000000D+00  E= 1.085637D+00  Symmetry=a
              MO Center= -1.5D-01, -6.2D-02, -5.8D-07, r^2= 2.0D+00
   Bfn.  Coefficient  Atom+Function         Bfn.  Coefficient  Atom+Function  
  ----- ------------  ---------------      ----- ------------  ---------------
     4      7.795019  1 O  s                 32     -4.269086  2 H  s          
    46     -2.408546  3 H  s                 38      1.888437  2 H  py         
    12      1.575632  1 O  py                11      1.070157  1 O  px         
    33     -0.912253  2 H  s                 51      0.914906  3 H  px         
     9      0.898909  1 O  py                52     -0.732715  3 H  py         

 Vector   17  Occ=0.000000D+00  E= 1.202245D+00  Symmetry=a
              MO Center=  2.6D-01,  1.7D-01,  2.1D-09, r^2= 2.1D+00
   Bfn.  Coefficient  Atom+Function         Bfn.  Coefficient  Atom+Function  
  ----- ------------  ---------------      ----- ------------  ---------------
    12     -1.426400  1 O  py                37     -1.326297  2 H  px         
    11      1.300836  1 O  px                46     -1.303915  3 H  s          
    52      0.947832  3 H  py                 4      0.779213  1 O  s          
    32      0.678226  2 H  s                 51      0.663336  3 H  px         
    47     -0.229952  3 H  s                  8      0.209222  1 O  px         

 Vector   18  Occ=0.000000D+00  E= 1.372968D+00  Symmetry=a
              MO Center=  1.2D+00, -5.2D-01,  4.6D-08, r^2= 1.2D+00
   Bfn.  Coefficient  Atom+Function         Bfn.  Coefficient  Atom+Function  
  ----- ------------  ---------------      ----- ------------  ---------------
    51      2.554105  3 H  px                46     -2.172775  3 H  s          
     4      1.995252  1 O  s                 11      1.177055  1 O  px         
    47     -1.107935  3 H  s                 52     -0.871689  3 H  py         
    12     -0.816495  1 O  py                 8      0.757711  1 O  px         
    32      0.673053  2 H  s                  9     -0.588151  1 O  py         


 Wrote Lagrangian and 1- and 2-particle density matrices to ./H2O.mcpdm


     Multipole analysis of the density
     ---------------------------------

     L   x y z        total        nuclear
     -   - - -        -----        -------
     0   0 0 0     -0.000000     10.000000

     1   1 0 0      0.592787     -0.000000
     1   0 1 0      0.364094      0.000000
     1   0 0 1      0.000001      0.000000

     2   2 0 0     -4.030311      2.679864
     2   1 1 0     -0.788137     -1.287220
     2   1 0 1      0.000000      0.000000
     2   0 2 0     -3.672755      2.957535
     2   0 1 1      0.000000      0.000000
     2   0 0 2     -5.418183      0.000000


  Mulliken analysis of the total density
  --------------------------------------

    Atom       Charge   Shell Charges
 -----------   ------   -------------------------------------------------------
    1 O    8     8.45   1.95  0.99  0.23  0.59  1.31  2.10  1.26  0.00  0.01  0.00
    2 H    1     0.80   0.30  0.36  0.03  0.03  0.07  0.01
    3 H    1     0.76   0.25  0.38  0.05  0.02  0.06  0.01

    Mulliken analysis of the active space density
    ---------------------------------------------

    Atom       Charge   Shell Charges
 -----------   ------   -------------------------------------------------------
    1 O    8     8.45   1.95  0.99  0.23  0.59  1.31  2.10  1.26  0.00  0.01  0.00
    2 H    1     0.80   0.30  0.36  0.03  0.03  0.07  0.01
    3 H    1     0.76   0.25  0.38  0.05  0.02  0.06  0.01

 Parallel integral file used      16 records with       0 large values


 Task  times  cpu:        5.2s     wall:        8.7s


                                NWChem Input Module
                                -------------------


                                 NWChem SCF Module
                                 -----------------


                                        H2O



  ao basis        = "ao basis"
  functions       =    58
  atoms           =     3
  closed shells   =     5
  open shells     =     0
  charge          =   0.00
  wavefunction    = RHF 
  input vectors   = ./h2o.mos
  output vectors  = ./h2o-trash.mos
  use symmetry    = F
  symmetry adapt  = F


 Summary of "ao basis" -> "ao basis" (spherical)
 ------------------------------------------------------------------------------
       Tag                 Description            Shells   Functions and Types
 ---------------- ------------------------------  ------  ---------------------
 O                          cc-pVTZ                 10       30   4s3p2d1f
 H                          cc-pVTZ                  6       14   3s2p1d



 Forming initial guess at       8.7s


 Loading old vectors from job with title :

H2O


 Starting SCF solution at       8.7s



 ----------------------------------------------
         Quadratically convergent ROHF

 Convergence threshold     :          1.000E-04
 Maximum no. of iterations :           30
 Final Fock-matrix accuracy:          1.000E-07
 ----------------------------------------------


 Integral file          = ./H2O.aoints.0
 Record size in doubles =  65536        No. of integs per rec  =  43688
 Max. records in memory =     49        Max. records in file   = 280319
 No. of bits per label  =      8        No. of bits per value  =     64


 #quartets = 3.213D+04 #integrals = 6.608D+05 #direct =  0.0% #cached =100.0%



       Final RHF  results 
       ------------------ 

         Total SCF energy =    -76.045893198972
      One-electron energy =   -123.844718767909
      Two-electron energy =     38.177049568332
 Nuclear repulsion energy =      9.621776000605

        Time for solution =      0.1s


             Final eigenvalues
             -----------------

              1      
    1  -20.5340
    2   -1.3762
    3   -0.7694
    4   -0.5908
    5   -0.5293
    6   -0.0256
    7   -0.0211
    8   -0.0160
    9    0.2822
   10    0.3352
   11    0.6159
   12    0.6528
   13    0.8096
   14    0.8547
   15    0.9740

                       ROHF Final Molecular Orbital Analysis
                       -------------------------------------

 Vector    2  Occ=2.000000D+00  E=-1.376180D+00
              MO Center= -3.1D-01, -1.8D-01,  2.6D-07, r^2= 4.2D-01
   Bfn.  Coefficient  Atom+Function         Bfn.  Coefficient  Atom+Function  
  ----- ------------  ---------------      ----- ------------  ---------------
     2      0.504828  1 O  s                  4      0.380121  1 O  s          

 Vector    3  Occ=2.000000D+00  E=-7.694295D-01
              MO Center= -6.4D-02, -3.0D-02, -5.8D-07, r^2= 6.5D-01
   Bfn.  Coefficient  Atom+Function         Bfn.  Coefficient  Atom+Function  
  ----- ------------  ---------------      ----- ------------  ---------------
    10      0.429461  1 O  pz                13      0.384510  1 O  pz         
     7      0.358198  1 O  pz         

 Vector    4  Occ=2.000000D+00  E=-5.907606D-01
              MO Center= -4.0D-02,  3.3D-01,  7.1D-08, r^2= 5.4D-01
   Bfn.  Coefficient  Atom+Function         Bfn.  Coefficient  Atom+Function  
  ----- ------------  ---------------      ----- ------------  ---------------
     9      0.330479  1 O  py                 6      0.291898  1 O  py         
    32      0.261946  2 H  s                 31      0.203801  2 H  s          
    12      0.171947  1 O  py         

 Vector    5  Occ=2.000000D+00  E=-5.293413D-01
              MO Center=  3.5D-01, -1.7D-01, -4.6D-08, r^2= 5.9D-01
   Bfn.  Coefficient  Atom+Function         Bfn.  Coefficient  Atom+Function  
  ----- ------------  ---------------      ----- ------------  ---------------
     8      0.331982  1 O  px                 5      0.276394  1 O  px         
    46      0.263973  3 H  s                 11      0.191674  1 O  px         
    45      0.184547  3 H  s          

 Vector    6  Occ=0.000000D+00  E=-2.560825D-02
              MO Center=  5.1D-01, -2.1D-01, -7.9D-08, r^2= 6.2D-01
   Bfn.  Coefficient  Atom+Function         Bfn.  Coefficient  Atom+Function  
  ----- ------------  ---------------      ----- ------------  ---------------
    46      0.664034  3 H  s                  5     -0.529999  1 O  px         
     8     -0.424364  1 O  px                 2     -0.318068  1 O  s          
    45      0.300135  3 H  s                  4     -0.169842  1 O  s          
     3     -0.165700  1 O  s          

 Vector    7  Occ=0.000000D+00  E=-2.114340D-02
              MO Center= -2.1D-02,  4.9D-01, -4.2D-08, r^2= 6.4D-01
   Bfn.  Coefficient  Atom+Function         Bfn.  Coefficient  Atom+Function  
  ----- ------------  ---------------      ----- ------------  ---------------
    32      0.686440  2 H  s                  6     -0.592493  1 O  py         
     9     -0.389333  1 O  py                31      0.296944  2 H  s          
     2     -0.264191  1 O  s                  4     -0.250955  1 O  s          
     3     -0.159248  1 O  s          

 Vector    8  Occ=0.000000D+00  E=-1.599512D-02
              MO Center= -2.9D-03,  4.5D-03, -3.0D-07, r^2= 1.1D+00
   Bfn.  Coefficient  Atom+Function         Bfn.  Coefficient  Atom+Function  
  ----- ------------  ---------------      ----- ------------  ---------------
    13      0.757800  1 O  pz                 7     -0.664078  1 O  pz         
    10     -0.288515  1 O  pz         

 Vector    9  Occ=0.000000D+00  E= 2.821713D-01
              MO Center=  1.5D-01,  3.3D-01,  1.9D-07, r^2= 4.7D+00
   Bfn.  Coefficient  Atom+Function         Bfn.  Coefficient  Atom+Function  
  ----- ------------  ---------------      ----- ------------  ---------------
     4      2.694453  1 O  s                 33     -1.391888  2 H  s          
    47     -0.947122  3 H  s                 32     -0.743272  2 H  s          
    12      0.709977  1 O  py                11      0.659418  1 O  px         
    38      0.599786  2 H  py                51      0.392213  3 H  px         
    46     -0.280626  3 H  s                 52     -0.156836  3 H  py         

 Vector   10  Occ=0.000000D+00  E= 3.351529D-01
              MO Center=  6.8D-01,  1.4D-01,  4.3D-08, r^2= 5.5D+00
   Bfn.  Coefficient  Atom+Function         Bfn.  Coefficient  Atom+Function  
  ----- ------------  ---------------      ----- ------------  ---------------
    47     -2.195826  3 H  s                 33      2.041895  2 H  s          
    12     -0.748879  1 O  py                11      0.492903  1 O  px         
    46      0.370953  3 H  s                 38     -0.349699  2 H  py         
    51      0.328088  3 H  px         

 Vector   11  Occ=0.000000D+00  E= 6.158986D-01
              MO Center=  2.4D-01, -4.9D-02,  1.1D-08, r^2= 2.0D+00
   Bfn.  Coefficient  Atom+Function         Bfn.  Coefficient  Atom+Function  
  ----- ------------  ---------------      ----- ------------  ---------------
     4      3.626770  1 O  s                 32     -3.435292  2 H  s          
    12      1.846180  1 O  py                46     -1.576784  3 H  s          
    11      1.006011  1 O  px                38      0.690160  2 H  py         
    51      0.380620  3 H  px                47      0.244222  3 H  s          
     2      0.214273  1 O  s                  9      0.190845  1 O  py         

 Vector   12  Occ=0.000000D+00  E= 6.528068D-01
              MO Center= -4.0D-01, -2.7D-02,  5.1D-08, r^2= 2.4D+00
   Bfn.  Coefficient  Atom+Function         Bfn.  Coefficient  Atom+Function  
  ----- ------------  ---------------      ----- ------------  ---------------
    46      2.756907  3 H  s                 11     -2.210990  1 O  px         
    12      2.078136  1 O  py                32     -1.525322  2 H  s          
    33     -0.885894  2 H  s                 51     -0.826618  3 H  px         
    47      0.809572  3 H  s                  4     -0.792285  1 O  s          
    38      0.470933  2 H  py                23     -0.327764  1 O  d  2       

 Vector   13  Occ=0.000000D+00  E= 8.096096D-01
              MO Center= -1.6D-01, -1.5D-01,  9.4D-08, r^2= 2.1D+00
   Bfn.  Coefficient  Atom+Function         Bfn.  Coefficient  Atom+Function  
  ----- ------------  ---------------      ----- ------------  ---------------
     4      1.768799  1 O  s                 32     -1.589399  2 H  s          
    11      1.574234  1 O  px                12      1.229635  1 O  py         
    46     -1.178880  3 H  s                 37     -0.999954  2 H  px         
    52     -0.973064  3 H  py                38      0.327677  2 H  py         
     2      0.189474  1 O  s                 19      0.186756  1 O  d -2       

 Vector   14  Occ=0.000000D+00  E= 8.547091D-01
              MO Center=  4.1D-01,  1.4D-01,  1.7D-07, r^2= 1.7D+00
   Bfn.  Coefficient  Atom+Function         Bfn.  Coefficient  Atom+Function  
  ----- ------------  ---------------      ----- ------------  ---------------
    53     -0.904185  3 H  pz                39      0.824033  2 H  pz         

 Vector   15  Occ=0.000000D+00  E= 9.740411D-01
              MO Center=  1.6D-02,  7.6D-02,  1.1D-06, r^2= 2.0D+00
   Bfn.  Coefficient  Atom+Function         Bfn.  Coefficient  Atom+Function  
  ----- ------------  ---------------      ----- ------------  ---------------
    13      1.388967  1 O  pz                39     -1.171140  2 H  pz         
    53     -0.929476  3 H  pz         


 center of mass
 --------------
 x =  -0.07599894 y =  -0.04288141 z =   0.00000000

 moments of inertia (a.u.)
 ------------------
           3.022755192104           1.222718042795           0.000000000000
           1.222718042795           2.833002082974           0.000000000000
           0.000000000000           0.000000000000           5.855757275078

  Mulliken analysis of the total density
  --------------------------------------

    Atom       Charge   Shell Charges
 -----------   ------   -------------------------------------------------------
    1 O    8     8.45   1.95  0.99  0.23  0.59  1.30  2.11  1.26  0.00  0.01  0.00
    2 H    1     0.79   0.30  0.36  0.03  0.03  0.07  0.01
    3 H    1     0.76   0.25  0.38  0.05  0.02  0.06  0.01

       Multipole analysis of the density wrt the origin
       ------------------------------------------------

     L   x y z        total         open         nuclear
     -   - - -        -----         ----         -------
     0   0 0 0     -0.000000      0.000000     10.000000

     1   1 0 0      0.603287      0.000000     -0.000000
     1   0 1 0      0.368838      0.000000      0.000000
     1   0 0 1      0.000001      0.000000      0.000000

     2   2 0 0     -4.008625      0.000000      2.679864
     2   1 1 0     -0.793764      0.000000     -1.287220
     2   1 0 1      0.000000      0.000000      0.000000
     2   0 2 0     -3.651935      0.000000      2.957535
     2   0 1 1      0.000000      0.000000      0.000000
     2   0 0 2     -5.402205      0.000000      0.000000


 Parallel integral file used      16 records with       0 large values

                   NWChem Extensible Many-Electron Theory Module
                   ---------------------------------------------

              ======================================================
                   This portion of the program was automatically
                  generated by a Tensor Contraction Engine (TCE).
                  The development of this portion of the program
                 and TCE was supported by US Department of Energy,
                Office of Science, Office of Basic Energy Science.
                      TCE is a product of Battelle and PNNL.
              Please cite: S.Hirata, J.Phys.Chem.A 107, 9887 (2003).
              ======================================================

                                        H2O


            General Information
            -------------------
      Number of processors :     1
         Wavefunction type : Restricted Hartree-Fock
          No. of electrons :    10
           Alpha electrons :     5
            Beta electrons :     5
           No. of orbitals :   116
            Alpha orbitals :    58
             Beta orbitals :    58
        Alpha frozen cores :     0
         Beta frozen cores :     0
     Alpha frozen virtuals :     0
      Beta frozen virtuals :     0
         Spin multiplicity : singlet 
    Number of AO functions :    58
       Number of AO shells :    22
        Use of symmetry is : off
      Symmetry adaption is : off
         Schwarz screening : 0.10D-09

          Correlation Information
          -----------------------
          Calculation type : Coupled-cluster singles & doubles                           
   Perturbative correction : none                                                        
            Max iterations :      100
        Residual threshold : 0.10D-06
     T(0) DIIS level shift : 0.00D+00
     L(0) DIIS level shift : 0.00D+00
     T(1) DIIS level shift : 0.00D+00
     L(1) DIIS level shift : 0.00D+00
     T(R) DIIS level shift : 0.00D+00
     T(I) DIIS level shift : 0.00D+00
   CC-T/L Amplitude update :  5-th order DIIS
                I/O scheme : Global Array Library
        L-threshold :  0.10D-06
        EOM-threshold :  0.10D-06
 no EOMCCSD initial starts read in
 TCE RESTART OPTIONS
 READ_INT:   F
 WRITE_INT:  F
 READ_TA:    F
 WRITE_TA:   F
 READ_XA:    F
 WRITE_XA:   F
 READ_IN3:   F
 WRITE_IN3:  F
 SLICE:      F
 D4D5:       F
 quantumc:   F
 qrotation:  F
 pwtce:      F
 qducc:      T
 nacto:                         0
 nrotv:                         0
 nrot:                          0

            Memory Information
            ------------------
          Available GA space size is    1610609372 doubles
          Available MA space size is    1610609772 doubles

 Maximum block size        32 doubles

 tile_dim =     27

 Block   Spin    Irrep     Size     Offset   Alpha
 -------------------------------------------------
   1    alpha     a      5 doubles       0       1
   2    beta      a      5 doubles       5       1
   3    alpha     a     26 doubles      10       3
   4    alpha     a     27 doubles      36       4
   5    beta      a     26 doubles      63       3
   6    beta      a     27 doubles      89       4

 Global array virtual files algorithm will be used

 Parallel file system coherency ......... OK

 Integral file          = ./H2O.aoints.0
 Record size in doubles =  65536        No. of integs per rec  =  43688
 Max. records in memory =     49        Max. records in file   = 280319
 No. of bits per label  =      8        No. of bits per value  =     64


 #quartets = 3.213D+04 #integrals = 6.608D+05 #direct =  0.0% #cached =100.0%


 Fock matrix recomputed
 1-e file size   =             3364
 1-e file name   = ./H2O.f1
 Cpu & wall time / sec            0.1            0.1
 4-electron integrals stored in orbital form

 v2    file size   =          3631290
 4-index algorithm nr.  13 is used
 imaxsize =       30
 imaxsize ichop =        0
 Cpu & wall time / sec            1.1            1.2
 T1-number-of-tasks                    2

 t1 file size   =              265
 t1 file name   = ./H2O.t1
 t1 file handle =       -998
 T2-number-of-boxes                    7

 t2 file size   =           122900
 t2 file name   = ./H2O.t2
 t2 file handle =       -996
CCSD iterations
 ---------------------------------------------------------
 Iter          Residuum       Correlation     Cpu    Wall 
 ---------------------------------------------------------
NEW TASK SCHEDULING
CCSD_T1_NTS --- OK
CCSD_T2_NTS --- OK
    1   1.2574767608019  -0.4454430783988     0.2     0.2
    2   2.5323802873899   0.0985086453815     0.2     0.2
    3   5.4935635337265  -1.0441431947088     0.1     0.2
    4  12.5127407273909   1.3626315381535     0.2     0.2
    5  13.6715574802146  -3.1875770199134     0.2     0.2
 MICROCYCLE DIIS UPDATE:                    5                    5
    6   0.1099028603994  -0.2698735657988     0.2     0.2
    7   0.1295020609475  -0.2847462497157     0.2     0.2
    8   0.2974444493649  -0.2475876479737     0.2     0.2
    9   0.7143734266015  -0.3045348323090     0.1     0.2
   10   1.7241013915404   0.0982414290496     0.2     0.2
 MICROCYCLE DIIS UPDATE:                   10                    5
   11   0.0138683788821  -0.2787904691966     0.2     0.2
   12   0.0123483346666  -0.2781522342715     0.2     0.2
   13   0.0268493928930  -0.2810511948630     0.2     0.2
   14   0.0679880373556  -0.2727568035591     0.2     0.2
   15   0.1726198976258  -0.2908371657308     0.2     0.2
 MICROCYCLE DIIS UPDATE:                   15                    5
   16   0.0009784300900  -0.2791005937506     0.2     0.2
   17   0.0011254387667  -0.2789852324696     0.1     0.2
   18   0.0024687948908  -0.2793246962333     0.1     0.2
   19   0.0062045634826  -0.2784618630170     0.2     0.2
   20   0.0156215740045  -0.2806308641465     0.2     0.2
 MICROCYCLE DIIS UPDATE:                   20                    5
   21   0.0001044152357  -0.2790881839466     0.2     0.2
   22   0.0001094907453  -0.2790854092316     0.1     0.2
   23   0.0001903441166  -0.2790932400003     0.2     0.2
   24   0.0004058944121  -0.2790715342349     0.2     0.2
   25   0.0009035551621  -0.2791288369870     0.2     0.2
 MICROCYCLE DIIS UPDATE:                   25                    5
   26   0.0000214788233  -0.2790877016976     0.2     0.2
   27   0.0000239017238  -0.2790862740508     0.1     0.2
   28   0.0000486656199  -0.2790909870537     0.2     0.2
   29   0.0001146651030  -0.2790789484857     0.2     0.2
   30   0.0002755897124  -0.2791093176667     0.2     0.2
 MICROCYCLE DIIS UPDATE:                   30                    5
   31   0.0000036844571  -0.2790876815701     0.1     0.2
   32   0.0000034960796  -0.2790874863620     0.1     0.2
   33   0.0000063164591  -0.2790879214628     0.2     0.2
   34   0.0000142463893  -0.2790867966266     0.2     0.2
   35   0.0000327486683  -0.2790896822649     0.2     0.2
 MICROCYCLE DIIS UPDATE:                   35                    5
   36   0.0000008342165  -0.2790876252244     0.2     0.2
   37   0.0000009129869  -0.2790875751434     0.2     0.2
   38   0.0000018016526  -0.2790877393578     0.2     0.2
   39   0.0000041763121  -0.2790873097151     0.2     0.2
   40   0.0000099144855  -0.2790884055942     0.1     0.2
 MICROCYCLE DIIS UPDATE:                   40                    5
   41   0.0000001508706  -0.2790876222791     0.2     0.2
   42   0.0000001409180  -0.2790876136539     0.2     0.2
   43   0.0000002539687  -0.2790876333062     0.1     0.2
   44   0.0000005723497  -0.2790875835723     0.2     0.2
   45   0.0000013164501  -0.2790877100033     0.2     0.2
 MICROCYCLE DIIS UPDATE:                   45                    5
   46   0.0000000344391  -0.2790876201733     0.2     0.2
 -----------------------------------------------------------------
 Iterations converged
 CCSD correlation energy / hartree =        -0.279087620173319
 CCSD total energy / hartree       =       -76.324980819145068

 Singles contributions

 Doubles contributions
     6a   (alpha)     7a   (alpha) ---     4a   (alpha)     5a   (alpha)        0.0204431554
     6a   (alpha)     7a   (alpha) ---     5a   (alpha)     4a   (alpha)       -0.0204431554
     6a   (alpha)     8a   (alpha) ---     3a   (alpha)     5a   (alpha)        0.0261590743
     6a   (alpha)     8a   (alpha) ---     5a   (alpha)     3a   (alpha)       -0.0261590743
     7a   (alpha)     6a   (alpha) ---     4a   (alpha)     5a   (alpha)       -0.0204431554
     7a   (alpha)     6a   (alpha) ---     5a   (alpha)     4a   (alpha)        0.0204431554
     7a   (alpha)     8a   (alpha) ---     3a   (alpha)     4a   (alpha)        0.0250295310
     7a   (alpha)     8a   (alpha) ---     4a   (alpha)     3a   (alpha)       -0.0250295310
     8a   (alpha)     6a   (alpha) ---     3a   (alpha)     5a   (alpha)       -0.0261590743
     8a   (alpha)     6a   (alpha) ---     5a   (alpha)     3a   (alpha)        0.0261590743
     8a   (alpha)     7a   (alpha) ---     3a   (alpha)     4a   (alpha)       -0.0250295310
     8a   (alpha)     7a   (alpha) ---     4a   (alpha)     3a   (alpha)        0.0250295310
     6a   (alpha)     6a   (beta ) ---     5a   (alpha)     5a   (beta )       -0.0792174001
     6a   (alpha)     7a   (beta ) ---     5a   (alpha)     4a   (beta )       -0.0295102849
     6a   (alpha)     8a   (beta ) ---     5a   (alpha)     3a   (beta )       -0.0359419778
     7a   (alpha)     6a   (beta ) ---     4a   (alpha)     5a   (beta )       -0.0295102849
     7a   (alpha)     7a   (beta ) ---     4a   (alpha)     4a   (beta )       -0.0628866257
     7a   (alpha)     8a   (beta ) ---     4a   (alpha)     3a   (beta )       -0.0339901643
     8a   (alpha)     6a   (beta ) ---     3a   (alpha)     5a   (beta )       -0.0359419778
     8a   (alpha)     7a   (beta ) ---     3a   (alpha)     4a   (beta )       -0.0339901643
     8a   (alpha)     8a   (beta ) ---     3a   (alpha)     3a   (beta )       -0.0521013331
     8a   (alpha)    16a   (beta ) ---     3a   (alpha)     2a   (beta )       -0.0219891218
    16a   (alpha)     8a   (beta ) ---     2a   (alpha)     3a   (beta )       -0.0219891218
 Ground state specification:
 exp(T)|Ref>~(1+T)|Ref>
 ------- a(p)+/a(q) strings ----------

 singles norm

 doubles norm

 Reference string
   1.0000000000000000      :(1a)+ (2a)+ (3a)+ (4a)+ (5a)+ (1b)+ (2b)+ (3b)+ (4b)+ (5b)+ |0>

 Singles strings

 Doubles strings
 -------------------------------------
 enrep_tce =    9.6217760006052764     
  EHF(total)         =       -76.04589320
  Shift (HFtot-HFA)  =         0.00000000
 ALL OCCUPIED ORBITALS ARE ACTIVE IN DUCC --> NO SHIFT
 Number of active orbitals                    8
 Number of active alpha electrons                    5
 Number of active beta electrons                    5
  nos                    10
  nvs                   106
 noas                     5
 nobs                     5
 nvas                    53
 nvbs                    53
 nactv                     3
 DUCC MODEL =                     6
 NONHF =  T
 F-T1 correlation    =   -3.9826751748109300E-005
 V-T1-T1 correlation =    5.8577447992531996E-006
 V-T2 correlation    =  -0.27905365116652553     
 Total correlation   =  -0.27908762017347438     
 F-T1(Ext) correlation         =   -4.9514926318986937E-005
 V-T1(Ext)-T1(Ext) correlation =    1.6574863510501792E-006
 V-T2(Ext) correlation         =  -0.19606994545049594     
 Total Ext correlation         =  -0.19611780289046388     
1-BODY TIME =  231.177 SECONDS.
  HHHH TIME =  230.999 SECONDS.
  PPPP TIME =    0.576 SECONDS.
  HHHP TIME =   16.538 SECONDS.
  PPPH TIME =    1.306 SECONDS.
  HPHP TIME =   16.520 SECONDS.
  HHPP TIME =    6.628 SECONDS.
 ONE-BODY UNITARY CHECK
 TWO-BODY UNITARY CHECK
                    1                    1                    1                    2   2.6438504573736496E-011
                    1                    1                    1                    4  -1.9662169599839131E-011
                    1                    1                    1                    5  -2.6450372030663981E-011
                    1                    1                    2                    1  -2.6438480664442782E-011
                    1                    1                    2                    4  -2.7933871768004799E-011
                    1                    1                    2                    5  -1.6490533060531827E-011
                    1                    1                    4                    1   1.9662169822074231E-011
                    1                    1                    4                    2   2.7933871783660640E-011
                    1                    1                    4                    5  -9.0436566899578751E-012
                    1                    1                    5                    1   2.6450371152893622E-011
                    1                    1                    5                    2   1.6490533028699229E-011
                    1                    1                    5                    4   9.0436566827381393E-012
                    1                    2                    1                    1  -2.6438504573736496E-011
                    1                    2                    1                    4   2.8815555844219354E-011
                    1                    2                    1                    5   5.2535529745934006E-011
                    1                    2                    2                    1   1.9927148819931517E-010
                    1                    2                    2                    2  -3.6676740452631697E-010
                    1                    2                    2                    4  -9.2196786663500951E-011
                    1                    2                    2                    5  -2.0096601119345969E-010
                    1                    2                    4                    1  -1.0475104984808414E-010
                    1                    2                    4                    2   3.5466974149245267E-010
                    1                    2                    4                    4  -6.2037716615040334E-011
                    1                    2                    4                    5  -6.1335613075075984E-011
                    1                    2                    5                    1  -8.4957038799793327E-011
                    1                    2                    5                    2   3.4270145228554316E-010
                    1                    2                    5                    4  -1.1472146084663681E-010
                    1                    2                    5                    5  -2.6646900725545357E-011
                    1                    3                    2                    3  -5.7073446663169491E-010
                    1                    3                    3                    1   1.8120926981168850E-010
                    1                    3                    3                    2  -1.2516786045135841E-010
                    1                    3                    3                    4  -4.8281291464835618E-010
                    1                    3                    3                    5  -7.0595976633947011E-010
                    1                    3                    4                    3   1.0002812311088460E-009
                    1                    3                    5                    3   1.1750896037471259E-009
                    1                    4                    1                    1   1.9662169599839131E-011
                    1                    4                    1                    2  -2.8815555844219354E-011
                    1                    4                    2                    1  -7.3371711484249147E-011
                    1                    4                    2                    2   1.4328534230928039E-010
                    1                    4                    2                    4  -2.5382539646512381E-010
                    1                    4                    2                    5   2.0008019807599533E-010
                    1                    4                    3                    3   4.3508097349864855E-011
                    1                    4                    4                    1  -1.0710765607768735E-011
                    1                    4                    4                    2   3.7954251547178686E-010
                    1                    4                    4                    4  -1.2411815415391281E-010
                    1                    4                    4                    5  -8.8881269011409358E-010
                    1                    4                    5                    1   5.7211870657658537E-011
                    1                    4                    5                    2  -5.5987331729691640E-010
                    1                    4                    5                    4   1.4039635114204696E-009
                    1                    4                    5                    5   1.2620396685717950E-010
                    1                    5                    1                    1   2.6450372030663981E-011
                    1                    5                    1                    2  -5.2535529745934006E-011
                    1                    5                    2                    1  -4.0163467170117872E-011
                    1                    5                    2                    2   3.4743839195494031E-011
                    1                    5                    2                    4   3.3176718823905126E-010
                    1                    5                    2                    5  -3.5482415443321980E-010
                    1                    5                    3                    3   3.5472730367914292E-011
                    1                    5                    4                    1   5.0833412132411659E-011
                    1                    5                    4                    2  -5.4322791675099485E-010
                    1                    5                    4                    4   1.5490669071677100E-010
                    1                    5                    4                    5   1.2034573788899383E-009
                    1                    5                    5                    1  -1.9077239787890221E-010
                    1                    5                    5                    2   1.2134532476060222E-009
                    1                    5                    5                    4  -1.1807534975802336E-009
                    1                    5                    5                    5  -3.1813284538872223E-010
                    1                    6                    1                    7  -2.1479324699077984E-010
                    1                    6                    1                    9  -7.5391790033130235E-011
                    1                    6                    1                   10  -6.1843863363719720E-011
                    1                    6                    2                    6   1.5781198873729418E-010
                    1                    6                    2                    7  -8.0988370176893199E-010
                    1                    6                    2                    9   1.0837330989207916E-010
                    1                    6                    2                   10   7.2701502370348114E-011
                    1                    6                    3                    8  -3.5297802875033923E-010
[...]
    8    2    3    1       -0.0189788140
    8    2    3    2       -0.0509735447
    8    2    3    3        0.0000000286
    8    2    3    4       -0.0052279202
    8    2    3    5       -0.0064387437
    8    2    3    6        0.0126188284
    8    2    3    7        0.0108895723
    8    2    3    8       -0.0000000239
    8    3    3    1        0.0000000084
    8    3    3    2        0.0000000304
    8    3    3    3       -0.1993919932
    8    3    3    4       -0.0000000181
    8    3    3    5        0.0000000088
    8    3    3    6       -0.0000000249
    8    3    3    7       -0.0000000917
    8    3    3    8        0.1622020833
    8    4    3    1       -0.0032525272
    8    4    3    2       -0.0009004869
    8    4    3    3       -0.0000001144
    8    4    3    4       -0.0068504566
    8    4    3    5       -0.0005010813
    8    4    3    6        0.0026114351
    8    4    3    7        0.0179807192
    8    4    3    8        0.0000000844
    8    5    3    1       -0.0036200402
    8    5    3    2       -0.0017259186
    8    5    3    3       -0.0000000158
    8    5    3    4       -0.0004971868
    8    5    3    5       -0.0055076034
    8    5    3    6        0.0175868245
    8    5    3    7        0.0010256795
    8    5    3    8        0.0000000096
    8    6    3    1        0.0071776432
    8    6    3    2        0.0272848051
    8    6    3    3       -0.0000000135
    8    6    3    4        0.0071722106
    8    6    3    5        0.0300881787
    8    6    3    6       -0.0191527155
    8    6    3    7       -0.0027165707
    8    6    3    8       -0.0000000044
    8    7    3    1        0.0063280434
    8    7    3    2        0.0238825361
    8    7    3    3       -0.0000000553
    8    7    3    4        0.0303058060
    8    7    3    5        0.0045156420
    8    7    3    6       -0.0028168224
    8    7    3    7       -0.0175022259
    8    7    3    8        0.0000000110
    8    8    3    1       -0.0000000036
    8    8    3    2       -0.0000000677
    8    8    3    3        0.6642439133
    8    8    3    4        0.0000000249
    8    8    3    5       -0.0000000209
    8    8    3    6        0.0000000267
    8    8    3    7        0.0000001045
    8    8    3    8       -0.1933384155
    8    1    4    1       -0.0000000181
    8    1    4    2       -0.0000000254
    8    1    4    3       -0.0076725866
    8    1    4    4       -0.0000000137
    8    1    4    5       -0.0000000067
    8    1    4    6        0.0000000082
    8    1    4    7        0.0000000075
    8    1    4    8        0.0040487172
    8    2    4    1       -0.0000000131
    8    2    4    2       -0.0000000351
    8    2    4    3       -0.0048124706
    8    2    4    4       -0.0000000142
    8    2    4    5       -0.0000000038
    8    2    4    6        0.0000000100
    8    2    4    7        0.0000000094
    8    2    4    8        0.0038088902
    8    3    4    1        0.0034306003
    8    3    4    2        0.0047114179
    8    3    4    3       -0.0000000180
    8    3    4    4       -0.1524312627
    8    3    4    5       -0.0029467718
    8    3    4    6        0.0072369452
    8    3    4    7        0.1222985210
    8    3    4    8        0.0000000844
    8    4    4    1        0.0000000026
    8    4    4    2        0.0000000002
    8    4    4    3       -0.0061084013
    8    4    4    4       -0.0000001099
    8    4    4    5       -0.0000000022
    8    4    4    6        0.0000000056
    8    4    4    7        0.0000000802
    8    4    4    8        0.0168780874
    8    5    4    1       -0.0000000019
    8    5    4    2        0.0000000010
    8    5    4    3       -0.0005197010
    8    5    4    4       -0.0000000151
    8    5    4    5       -0.0000000031
    8    5    4    6        0.0000000111
    8    5    4    7        0.0000000147
    8    5    4    8        0.0017149096
    8    6    4    1        0.0000000041
    8    6    4    2        0.0000000198
    8    6    4    3        0.0073503320
    8    6    4    4        0.0000000271
    8    6    4    5        0.0000000183
    8    6    4    6       -0.0000000118
    8    6    4    7       -0.0000000117
    8    6    4    8       -0.0008617800
    8    7    4    1       -0.0000000010
    8    7    4    2        0.0000000052
    8    7    4    3        0.0296307717
    8    7    4    4        0.0000000217
    8    7    4    5        0.0000000041
    8    7    4    6       -0.0000000024
    8    7    4    7       -0.0000000077
    8    7    4    8       -0.0081925124
    8    8    4    1       -0.0059700362
    8    8    4    2        0.0064566703
    8    8    4    3        0.0000000249
    8    8    4    4        0.5927000630
    8    8    4    5        0.0089012967
    8    8    4    6       -0.0098685078
    8    8    4    7       -0.1599361407
    8    8    4    8       -0.0000001184
    8    1    5    1       -0.0000000004
    8    1    5    2       -0.0000000084
    8    1    5    3       -0.0083083749
    8    1    5    4       -0.0000000067
    8    1    5    5       -0.0000000083
    8    1    5    6        0.0000000036
    8    1    5    7        0.0000000023
    8    1    5    8        0.0045609269
    8    2    5    1       -0.0000000037
    8    2    5    2       -0.0000000094
    8    2    5    3       -0.0060008105
    8    2    5    4       -0.0000000036
    8    2    5    5       -0.0000000087
    8    2    5    6        0.0000000075
    8    2    5    7        0.0000000030
    8    2    5    8        0.0050047612
    8    3    5    1        0.0035122338
    8    3    5    2        0.0021140061
    8    3    5    3        0.0000000089
    8    3    5    4       -0.0029803048
    8    3    5    5       -0.1410098118
    8    3    5    6        0.1208877436
    8    3    5    7       -0.0052510273
    8    3    5    8        0.0000000096
    8    4    5    1        0.0000000017
    8    4    5    2        0.0000000028
    8    4    5    3       -0.0005402583
    8    4    5    4       -0.0000000022
    8    4    5    5       -0.0000000867
    8    4    5    6        0.0000000756
    8    4    5    7       -0.0000000017
    8    4    5    8        0.0017149096
    8    5    5    1        0.0000000019
    8    5    5    2       -0.0000000003
    8    5    5    3       -0.0047955183
    8    5    5    4       -0.0000000027
    8    5    5    5       -0.0000000163
    8    5    5    6        0.0000000173
    8    5    5    7       -0.0000000008
    8    5    5    8        0.0173917464
    8    6    5    1       -0.0000000038
    8    6    5    2        0.0000000021
    8    6    5    3        0.0293012986
    8    6    5    4        0.0000000178
    8    6    5    5        0.0000000251
    8    6    5    6       -0.0000000033
    8    6    5    7        0.0000000005
    8    6    5    8       -0.0073913214
    8    7    5    1        0.0000000013
    8    7    5    2        0.0000000078
    8    7    5    3        0.0047446374
    8    7    5    4        0.0000000043
    8    7    5    5        0.0000000034
    8    7    5    6        0.0000000016
    8    7    5    7       -0.0000000002
    8    7    5    8       -0.0000146767
    8    8    5    1       -0.0060030601
    8    8    5    2        0.0083437781
    8    8    5    3       -0.0000000209
    8    8    5    4        0.0089012967
    8    8    5    5        0.5756491511
    8    8    5    6       -0.1613582487
    8    8    5    7        0.0069908752
    8    8    5    8       -0.0000000191
    8    1    6    1       -0.0000000013
    8    1    6    2        0.0000000080
    8    1    6    3        0.0096792604
    8    1    6    4        0.0000000078
    8    1    6    5        0.0000000031
    8    1    6    6       -0.0000000091
    8    1    6    7       -0.0000000036
    8    1    6    8       -0.0125325096
    8    2    6    1        0.0000000050
    8    2    6    2        0.0000000166
    8    2    6    3        0.0132093216
    8    2    6    4        0.0000000102
    8    2    6    5        0.0000000091
    8    2    6    6       -0.0000000036
    8    2    6    7       -0.0000000044
    8    2    6    8       -0.0097093691
    8    3    6    1       -0.0056820048
    8    3    6    2        0.0090354759
    8    3    6    3       -0.0000000193
    8    3    6    4        0.0063739560
    8    3    6    5        0.1181006278
    8    3    6    6       -0.1771711595
    8    3    6    7        0.0035534273
    8    3    6    8       -0.0000000044
    8    4    6    1       -0.0000000031
    8    4    6    2        0.0000000064
    8    4    6    3        0.0022868835
    8    4    6    4        0.0000000050
    8    4    6    5        0.0000000742
    8    4    6    6       -0.0000001082
    8    4    6    7        0.0000000012
    8    4    6    8       -0.0008617800
    8    5    6    1       -0.0000000031
    8    5    6    2        0.0000000024
    8    5    6    3        0.0179365005
    8    5    6    4        0.0000000115
    8    5    6    5        0.0000000194
    8    5    6    6       -0.0000000164
    8    5    6    7        0.0000000008
    8    5    6    8       -0.0073913214
    8    6    6    1        0.0000000058
    8    6    6    2        0.0000000040
    8    6    6    3       -0.0192880217
    8    6    6    4       -0.0000000119
    8    6    6    5       -0.0000000040
    8    6    6    6        0.0000000238
    8    6    6    7       -0.0000000005
    8    6    6    8        0.0331234724
    8    7    6    1       -0.0000000023
    8    7    6    2       -0.0000000073
    8    7    6    3       -0.0030278361
    8    7    6    4       -0.0000000025
    8    7    6    5        0.0000000016
    8    7    6    6        0.0000000022
    8    7    6    7       -0.0000000015
    8    7    6    8        0.0065475630
    8    8    6    1        0.0082717584
    8    8    6    2       -0.0100688435
    8    8    6    3        0.0000000267
    8    8    6    4       -0.0098685078
    8    8    6    5       -0.1613582487
    8    8    6    6        0.6082876411
    8    8    6    7       -0.0010188124
    8    8    6    8        0.0000000029
    8    1    7    1       -0.0000000053
    8    1    7    2        0.0000000046
    8    1    7    3        0.0084506144
    8    1    7    4        0.0000000067
    8    1    7    5        0.0000000021
    8    1    7    6       -0.0000000036
    8    1    7    7       -0.0000000050
    8    1    7    8       -0.0109954709
    8    2    7    1        0.0000000030
    8    2    7    2        0.0000000108
    8    2    7    3        0.0116053229
    8    2    7    4        0.0000000125
    8    2    7    5        0.0000000027
    8    2    7    6       -0.0000000045
    8    2    7    7       -0.0000000017
    8    2    7    8       -0.0080672113
    8    3    7    1       -0.0050605100
    8    3    7    2        0.0080993862
    8    3    7    3       -0.0000000896
    8    3    7    4        0.1187848733
    8    3    7    5       -0.0057913324
    8    3    7    6        0.0036320721
    8    3    7    7       -0.1841270174
    8    3    7    8        0.0000000110
    8    4    7    1       -0.0000000064
    8    4    7    2        0.0000000049
    8    4    7    3        0.0184003763
    8    4    7    4        0.0000000793
    8    4    7    5       -0.0000000015
    8    4    7    6        0.0000000011
    8    4    7    7       -0.0000001178
    8    4    7    8       -0.0081925124
    8    5    7    1       -0.0000000002
    8    5    7    2        0.0000000020
    8    5    7    3        0.0007621077
    8    5    7    4        0.0000000146
    8    5    7    5       -0.0000000016
    8    5    7    6        0.0000000010
    8    5    7    7       -0.0000000176
    8    5    7    8       -0.0000146767
    8    6    7    1       -0.0000000009
    8    6    7    2       -0.0000000063
    8    6    7    3       -0.0028825793
    8    6    7    4       -0.0000000122
    8    6    7    5        0.0000000006
    8    6    7    6       -0.0000000005
    8    6    7    7        0.0000000198
    8    6    7    8        0.0065475630
    8    7    7    1        0.0000000083
    8    7    7    2        0.0000000087
    8    7    7    3       -0.0175264119
    8    7    7    4       -0.0000000078
    8    7    7    5       -0.0000000003
    8    7    7    6       -0.0000000015
    8    7    7    7       -0.0000000160
    8    7    7    8        0.0329055693
    8    8    7    1        0.0071265552
    8    8    7    2       -0.0075089473
    8    8    7    3        0.0000001045
    8    8    7    4       -0.1599361407
    8    8    7    5        0.0069908752
    8    8    7    6       -0.0010188124
    8    8    7    7        0.6199607506
    8    8    7    8       -0.0000000174
    8    1    8    1        0.0554895663
    8    1    8    2        0.0274177336
    8    1    8    3       -0.0000000165
    8    1    8    4        0.0037840042
    8    1    8    5        0.0043048063
    8    1    8    6       -0.0123361503
    8    1    8    7       -0.0108174856
    8    1    8    8        0.0000000190
    8    2    8    1        0.0274177336
    8    2    8    2        0.0528155036
    8    2    8    3       -0.0000000181
    8    2    8    4        0.0036353226
    8    2    8    5        0.0049747724
    8    2    8    6       -0.0104590270
    8    2    8    7       -0.0087299216
    8    2    8    8        0.0000000216
    8    3    8    1       -0.0000000165
    8    3    8    2       -0.0000000181
    8    3    8    3        0.1591855154
    8    3    8    4        0.0000000846
    8    3    8    5        0.0000000113
    8    3    8    6       -0.0000000051
    8    3    8    7        0.0000000111
    8    3    8    8       -0.1933384155
    8    4    8    1        0.0037840042
    8    4    8    2        0.0036353226
    8    4    8    3        0.0000000846
    8    4    8    4        0.0159793268
    8    4    8    5        0.0015960480
    8    4    8    6       -0.0007795868
    8    4    8    7       -0.0085189133
    8    4    8    8       -0.0000001184
    8    5    8    1        0.0043048063
    8    5    8    2        0.0049747724
    8    5    8    3        0.0000000113
    8    5    8    4        0.0015960480
    8    5    8    5        0.0171426158
    8    5    8    6       -0.0077191419
    8    5    8    7        0.0000646042
    8    5    8    8       -0.0000000191
    8    6    8    1       -0.0123361503
    8    6    8    2       -0.0104590270
    8    6    8    3       -0.0000000051
    8    6    8    4       -0.0007795868
    8    6    8    5       -0.0077191419
    8    6    8    6        0.0331490389
    8    6    8    7        0.0065195652
    8    6    8    8        0.0000000029
    8    7    8    1       -0.0108174856
    8    7    8    2       -0.0087299216
    8    7    8    3        0.0000000111
    8    7    8    4       -0.0085189133
    8    7    8    5        0.0000646042
    8    7    8    6        0.0065195652
    8    7    8    7        0.0329369055
    8    7    8    8       -0.0000000174
    8    8    8    1        0.0000000190
    8    8    8    2        0.0000000216
    8    8    8    3       -0.1933384155
    8    8    8    4       -0.0000001184
    8    8    8    5       -0.0000000191
    8    8    8    6        0.0000000029
    8    8    8    7       -0.0000000174
    8    8    8    8        0.6407624295
 end_two_electron_integrals

 Parallel integral file used      16 records with       0 large values


 Task  times  cpu:      524.8s     wall:      526.6s


                                NWChem Input Module
                                -------------------


 Summary of allocated global arrays
-----------------------------------
  No active global arrays


MA_summarize_allocated_blocks: starting scan ...
MA_summarize_allocated_blocks: scan completed: 0 heap blocks, 0 stack blocks
MA usage statistics:

	allocation statistics:
					      heap	     stack
					      ----	     -----
	current number of blocks	         0	         0
	maximum number of blocks	        18	        42
	current total bytes		         0	         0
	maximum total bytes		  25775960	4725685720
	maximum total K-bytes		     25776	   4725686
	maximum total M-bytes		        26	      4726


                                     CITATION
                                     --------
                Please cite the following reference when publishing
                           results obtained with NWChem:

          E. Apra, E. J. Bylaska, W. A. de Jong, N. Govind, K. Kowalski,
       T. P. Straatsma, M. Valiev, H. J. J. van Dam, Y. Alexeev, J. Anchell,
       V. Anisimov, F. W. Aquino, R. Atta-Fynn, J. Autschbach, N. P. Bauman,
     J. C. Becca, D. E. Bernholdt, K. Bhaskaran-Nair, S. Bogatko, P. Borowski,
         J. Boschen, J. Brabec, A. Bruner, E. Cauet, Y. Chen, G. N. Chuev,
      C. J. Cramer, J. Daily, M. J. O. Deegan, T. H. Dunning Jr., M. Dupuis,
   K. G. Dyall, G. I. Fann, S. A. Fischer, A. Fonari, H. Fruchtl, L. Gagliardi,
      J. Garza, N. Gawande, S. Ghosh, K. Glaesemann, A. W. Gotz, J. Hammond,
       V. Helms, E. D. Hermes, K. Hirao, S. Hirata, M. Jacquelin, L. Jensen,
   B. G. Johnson, H. Jonsson, R. A. Kendall, M. Klemm, R. Kobayashi, V. Konkov,
      S. Krishnamoorthy, M. Krishnan, Z. Lin, R. D. Lins, R. J. Littlefield,
      A. J. Logsdail, K. Lopata, W. Ma, A. V. Marenich, J. Martin del Campo,
   D. Mejia-Rodriguez, J. E. Moore, J. M. Mullin, T. Nakajima, D. R. Nascimento,
    J. A. Nichols, P. J. Nichols, J. Nieplocha, A. Otero-de-la-Roza, B. Palmer,
    A. Panyala, T. Pirojsirikul, B. Peng, R. Peverati, J. Pittner, L. Pollack,
   R. M. Richard, P. Sadayappan, G. C. Schatz, W. A. Shelton, D. W. Silverstein,
   D. M. A. Smith, T. A. Soares, D. Song, M. Swart, H. L. Taylor, G. S. Thomas,
            V. Tipparaju, D. G. Truhlar, K. Tsemekhman, T. Van Voorhis,
      A. Vazquez-Mayagoitia, P. Verma, O. Villa, A. Vishnu, K. D. Vogiatzis,
        D. Wang, J. H. Weare, M. J. Williamson, T. L. Windus, K. Wolinski,
        A. T. Wong, Q. Wu, C. Yang, Q. Yu, M. Zacharias, Z. Zhang, Y. Zhao,
                                and R. J. Harrison
                        "NWChem: Past, present, and future
                         J. Chem. Phys. 152, 184102 (2020)
                               doi:10.1063/5.0004997

                                      AUTHORS
                                      -------
  E. Apra, E. J. Bylaska, N. Govind, K. Kowalski, M. Valiev, D. Mejia-Rodriguez,
       A. Kunitsa, N. P. Bauman, A. Panyala, W. A. de Jong, T. P. Straatsma,
        H. J. J. van Dam, D. Wang, T. L. Windus, J. Hammond, J. Autschbach,
    K. Bhaskaran-Nair, J. Brabec, K. Lopata, S. A. Fischer, S. Krishnamoorthy,
     M. Jacquelin, W. Ma, M. Klemm, O. Villa, Y. Chen, V. Anisimov, F. Aquino,
    S. Hirata, M. T. Hackler, Eric Hermes, L. Jensen, J. E. Moore, J. C. Becca,
      V. Konjkov, T. Risthaus, M. Malagoli, A. Marenich, A. Otero-de-la-Roza,
        J. Mullin, P. Nichols, R. Peverati, J. Pittner, Y. Zhao, P.-D. Fan,
        A. Fonari, M. J. Williamson, R. J. Harrison, J. R. Rehr, M. Dupuis,
     D. Silverstein, D. M. A. Smith, J. Nieplocha, V. Tipparaju, M. Krishnan,
     B. E. Van Kuiken, A. Vazquez-Mayagoitia, M. Swart, Q. Wu, T. Van Voorhis,
     A. A. Auer, M. Nooijen, L. D. Crosby, E. Brown, G. Cisneros, G. I. Fann,
   H. Fruchtl, J. Garza, K. Hirao, R. A. Kendall, J. A. Nichols, K. Tsemekhman,
    K. Wolinski, J. Anchell, D. E. Bernholdt, P. Borowski, T. Clark, D. Clerc,
   H. Dachsel, M. J. O. Deegan, K. Dyall, D. Elwood, E. Glendening, M. Gutowski,
   A. C. Hess, J. Jaffe, B. G. Johnson, J. Ju, R. Kobayashi, R. Kutteh, Z. Lin,
   R. Littlefield, X. Long, B. Meng, T. Nakajima, S. Niu, L. Pollack, M. Rosing,
   K. Glaesemann, G. Sandrone, M. Stave, H. Taylor, G. Thomas, J. H. van Lenthe,
                               A. T. Wong, Z. Zhang.

 Total times  cpu:      530.0s     wall:      535.3s
