 argument  1 = input.nw
  NWChem w/ OpenMP: maximum threads =    1



============================== echo of input deck ==============================
 echo
 start H2O
 title "H2O"

 memory total 24 gb

 geometry units bohr
 symmetry c1
        O  0.00000000  0.00000000  0.00000000
        H  0.00000000  1.6406705  0.00000000
        H  1.72558000 -0.64860000  0.00000000
 end

 basis spherical
   * library cc-pVTZ
 end

 mcscf
   active  8
   actelec 10
   multiplicity 1
   maxiter 40
   vectors input h2o.mos
   vectors output h2o.mos
 end

 task mcscf

 scf
   vectors input h2o.mos
   vectors output h2o-trash.mos
   noscf
 end

 tce
   2eorb
   2emet 13
   ccsd
 end

# set tce:print_integrals T
# set tce:qorb 8
# set tce:qela 5
# set tce:qelb 5

 set tce:qducc T
 set tce:nactv 3
 set tce:nonhf T
 set tce:ducc_model 6

 set tce:printtol 0.02

 task tce
================================================================================


                                         
                                         


             Northwest Computational Chemistry Package (NWChem) 7.0.1
             --------------------------------------------------------


                    Environmental Molecular Sciences Laboratory
                       Pacific Northwest National Laboratory
                                Richland, WA 99352

                              Copyright (c) 1994-2020
                       Pacific Northwest National Laboratory
                            Battelle Memorial Institute

             NWChem is an open-source computational chemistry package
                        distributed under the terms of the
                      Educational Community License (ECL) 2.0
             A copy of the license is included with this distribution
                              in the LICENSE.TXT file

                                  ACKNOWLEDGMENT
                                  --------------

            This software and its documentation were developed at the
            EMSL at Pacific Northwest National Laboratory, a multiprogram
            national laboratory, operated for the U.S. Department of Energy
            by Battelle under Contract Number DE-AC05-76RL01830. Support
            for this work was provided by the Department of Energy Office
            of Biological and Environmental Research, Office of Basic
            Energy Sciences, and the Office of Advanced Scientific Computing.


           Job information
           ---------------

    hostname        = WE46210
    program         = /home/baum612/code/nwchem/bin/LINUX64/nwchem
    date            = Fri Feb 16 17:17:41 2024

    compiled        = Fri_Feb_16_11:09:52_2024
    source          = /home/baum612/code/nwchem
    nwchem branch   = 7.0.0
    nwchem revision = nwchem_on_git-4191-g39d87d64de
    ga revision     = 5.8.1
    use scalapack   = F
    input           = input.nw
    prefix          = H2O.
    data base       = ./H2O.db
    status          = startup
    nproc           =        1
    time left       =     -1s



           Memory information
           ------------------

    heap     =  805306362 doubles =   6144.0 Mbytes
    stack    =  805306367 doubles =   6144.0 Mbytes
    global   = 1610612736 doubles =  12288.0 Mbytes (distinct from heap & stack)
    total    = 3221225465 doubles =  24576.0 Mbytes
    verify   = yes
    hardfail = no 


           Directory information
           ---------------------

  0 permanent = .
  0 scratch   = .




                                NWChem Input Module
                                -------------------


                                        H2O
                                        ---
 Turning off AUTOSYM since
 SYMMETRY directive was detected!


          ------
          auto-z
          ------
  no constraints, skipping    0.0000000000000000     
  no constraints, skipping    0.0000000000000000     


                             Geometry "geometry" -> ""
                             -------------------------

 Output coordinates in a.u. (scale by  1.000000000 to convert to a.u.)

  No.       Tag          Charge          X              Y              Z
 ---- ---------------- ---------- -------------- -------------- --------------
    1 O                    8.0000    -0.17255800    -0.09920705     0.00000000
    2 H                    1.0000    -0.17255800     1.54146345     0.00000000
    3 H                    1.0000     1.55302200    -0.74780705     0.00000000

      Atomic Mass 
      ----------- 

      O                 15.994910
      H                  1.007825


 Effective nuclear repulsion energy (a.u.)       9.5645684711

            Nuclear Dipole moment (a.u.) 
            ----------------------------
        X                 Y               Z
 ---------------- ---------------- ----------------
    -0.0000000000    -0.0000000000     0.0000000000



                                Z-matrix (autoz)
                                -------- 

 Units are Angstrom for bonds and degrees for angles

      Type          Name      I     J     K     L     M      Value
      ----------- --------  ----- ----- ----- ----- ----- ----------
    1 Stretch                  1     2                       0.86821
    2 Stretch                  1     3                       0.97551
    3 Bend                     2     1     3               110.59992


            XYZ format geometry
            -------------------
     3
 geometry
 O                    -0.09131377    -0.05249811     0.00000000
 H                    -0.09131377     0.81570739     0.00000000
 H                     0.82182391    -0.39572248     0.00000000

 ==============================================================================
                                internuclear distances
 ------------------------------------------------------------------------------
       center one      |      center two      | atomic units |       a.u.
 ------------------------------------------------------------------------------
    2 H                |   1 O                |     1.64067  |     1.64067
    3 H                |   1 O                |     1.84345  |     1.84345
 ------------------------------------------------------------------------------
                         number of included internuclear distances:          2
 ==============================================================================



 ==============================================================================
                                 internuclear angles
 ------------------------------------------------------------------------------
        center 1       |       center 2       |       center 3       |  degrees
 ------------------------------------------------------------------------------
    2 H                |   1 O                |   3 H                |   110.60
 ------------------------------------------------------------------------------
                            number of included internuclear angles:          1
 ==============================================================================





 Summary of "ao basis" -> "" (spherical)
 ------------------------------------------------------------------------------
       Tag                 Description            Shells   Functions and Types
 ---------------- ------------------------------  ------  ---------------------
 *                          cc-pVTZ                   on all atoms 


                      Basis "ao basis" -> "ao basis" (spherical)
                      -----
  O (Oxygen)
  ----------
            Exponent  Coefficients 
       -------------- ---------------------------------------------------------
  1 S  1.53300000E+04  0.000508
  1 S  2.29900000E+03  0.003929
  1 S  5.22400000E+02  0.020243
  1 S  1.47300000E+02  0.079181
  1 S  4.75500000E+01  0.230687
  1 S  1.67600000E+01  0.433118
  1 S  6.20700000E+00  0.350260
  1 S  6.88200000E-01 -0.008154

  2 S  1.53300000E+04 -0.000115
  2 S  2.29900000E+03 -0.000895
  2 S  5.22400000E+02 -0.004636
  2 S  1.47300000E+02 -0.018724
  2 S  4.75500000E+01 -0.058463
  2 S  1.67600000E+01 -0.136463
  2 S  6.20700000E+00 -0.175740
  2 S  6.88200000E-01  0.603418

  3 S  1.75200000E+00  1.000000

  4 S  2.38400000E-01  1.000000

  5 P  3.44600000E+01  0.015928
  5 P  7.74900000E+00  0.099740
  5 P  2.28000000E+00  0.310492

  6 P  7.15600000E-01  1.000000

  7 P  2.14000000E-01  1.000000

  8 D  2.31400000E+00  1.000000

  9 D  6.45000000E-01  1.000000

 10 F  1.42800000E+00  1.000000

  H (Hydrogen)
  ------------
            Exponent  Coefficients 
       -------------- ---------------------------------------------------------
  1 S  3.38700000E+01  0.006068
  1 S  5.09500000E+00  0.045308
  1 S  1.15900000E+00  0.202822

  2 S  3.25800000E-01  1.000000

  3 S  1.02700000E-01  1.000000

  4 P  1.40700000E+00  1.000000

  5 P  3.88000000E-01  1.000000

  6 D  1.05700000E+00  1.000000



 Summary of "ao basis" -> "ao basis" (spherical)
 ------------------------------------------------------------------------------
       Tag                 Description            Shells   Functions and Types
 ---------------- ------------------------------  ------  ---------------------
 O                          cc-pVTZ                 10       30   4s3p2d1f
 H                          cc-pVTZ                  6       14   3s2p1d



                            NWChem Direct MCSCF Module
                            --------------------------


                                        H2O


     -----------------------------------
       Basis functions:             58
       Inactive shells:              0
       Active shells:                8
       Active electrons:            10
       Symmetry:                    a       
       Multiplicity:                 1
       Orbital rotations:          400
     -----------------------------------

     -----------------------------------
       E2 extrapolation:             F
       Conjugacy:                    T
       Micro CI relax:               T
       Canonical orbitals:           T
       Maximum iterations:          40
       Converge threshold:    1.00E-04
       Conjugacy resets:            20
       Initial levelshift:        0.10
     -----------------------------------

 Loading old vectors from job with title :

H2O


   input molecular orbitals = ./h2o.mos
  output molecular orbtials = ./h2o.mos

       No. of determinants:          3136


  Starting Orbital Energies
   -20.535434    -1.371145    -0.765118    -0.589643    -0.528548    -0.025626
    -0.021632    -0.016004     0.283731     0.335156     0.614604     0.652949
     0.809658     0.853347     0.974022     1.091019     1.197895     1.374407
     1.498557     2.006843     2.006972     2.090878     2.142105     2.191361
     2.620804     2.891804     3.393745     3.526242     3.531971     3.586447
     3.652185     3.869402     3.934844     3.955463     3.991308     4.042595
     4.186022     4.400460     4.477249     4.537920     4.684701     4.883254
     5.296187     5.326933     5.566514     6.077181     6.580398     6.890464
     6.921239     7.013081     7.084477     7.136445     7.407847     7.453018
     7.516936     7.902620     8.370089    13.519566

  Orbital Symmetry Irreps
a    a    a    a    a    a    a    a    a    a    a    a    a    a    a   
a    a    a    a    a    a    a    a    a    a    a    a    a    a    a   
a    a    a    a    a    a    a    a    a    a    a    a    a    a    a   
a    a    a    a    a    a    a    a    a    a    a    a    a   

 Integral file          = ./H2O.aoints.0
 Record size in doubles =  65536        No. of integs per rec  =  43688
 Max. records in memory =     49        Max. records in file   = 252532
 No. of bits per label  =      8        No. of bits per value  =     64


 #quartets = 3.213D+04 #integrals = 6.608D+05 #direct =  0.0% #cached =100.0%




          %%%%% MacroIteration   1 %%%%%


          Number of sigma calls:       15
                       o<<<<< (aa):             0.00
                       o<<<<< (bb):             0.01
                       o<<<<< (ab):             0.08
                       o<<<<< (total)           0.09
                       o<<<<< (aa) ff           0.00
                       o<<<<< (aa) gop          0.00
                       o<<<<< (aa) dot          0.00
                       o<<<<< (ab) str          0.00
                       o<<<<< (ab) gath         0.00
                       o<<<<< (ab) dotab        0.00
                       o<<<<< (ab) scat         0.00
                       o<<<<< (ab) sync         0.00
                       o<<<<< Density           0.00
                       o<<<<< Density one       0.00
                       o<<<<< Density two       0.00
                       o<<<<< Density ab        0.00
                       o<<<<< Spin adapt        0.42
                       o<<<<< Symm adapt        0.00

                       o<<<<< (ab) max sync:      0.00

           >>>| Valence CI:            -85.702505391757
           >>>| MCSCF energy:          -76.137936920675
           >>>| Gradient norm:          0.141224646D-01

                              ----- Line search ------

        step       energy         lsg     num-lsg   num-lsh   lsrat    time
      ------- ---------------- --------- --------- --------- ------- --------
       0.0000     -76.13793692 -1.59D-05  0.00D+00  0.00D+00 0.0D+00      1.4

          Number of sigma calls:       14
                       o<<<<< (aa):             0.00
                       o<<<<< (bb):             0.00
                       o<<<<< (ab):             0.07
                       o<<<<< (total)           0.08
                       o<<<<< (aa) ff           0.00
                       o<<<<< (aa) gop          0.00
                       o<<<<< (aa) dot          0.00
                       o<<<<< (ab) str          0.00
                       o<<<<< (ab) gath         0.00
                       o<<<<< (ab) dotab        0.00
                       o<<<<< (ab) scat         0.00
                       o<<<<< (ab) sync         0.00
                       o<<<<< Density           0.01
                       o<<<<< Density one       0.00
                       o<<<<< Density two       0.00
                       o<<<<< Density ab        0.01
                       o<<<<< Spin adapt        0.37
                       o<<<<< Symm adapt        0.00

                       o<<<<< (ab) max sync:      0.00
       1.0000     -76.13794510 -4.93D-07 -4.93D-07  1.54D-05 3.1D-02      2.0
     --- Orbitals canonicalized ---



          %%%%% MacroIteration   2 %%%%%


          Number of sigma calls:       11
                       o<<<<< (aa):             0.00
                       o<<<<< (bb):             0.00
                       o<<<<< (ab):             0.06
                       o<<<<< (total)           0.06
                       o<<<<< (aa) ff           0.00
                       o<<<<< (aa) gop          0.00
                       o<<<<< (aa) dot          0.00
                       o<<<<< (ab) str          0.00
                       o<<<<< (ab) gath         0.00
                       o<<<<< (ab) dotab        0.00
                       o<<<<< (ab) scat         0.00
                       o<<<<< (ab) sync         0.00
                       o<<<<< Density           0.02
                       o<<<<< Density one       0.00
                       o<<<<< Density two       0.00
                       o<<<<< Density ab        0.01
                       o<<<<< Spin adapt        0.34
                       o<<<<< Symm adapt        0.00

                       o<<<<< (ab) max sync:      0.00

           >>>| Valence CI:            -85.702513569455
           >>>| MCSCF energy:          -76.137945098374
           >>>| Gradient norm:          0.958568536D-03
     --- Warning:    2 Hessian diagonals < 0.05 ---
     --- Conjugacy reset ---

                              ----- Line search ------

        step       energy         lsg     num-lsg   num-lsh   lsrat    time
      ------- ---------------- --------- --------- --------- ------- --------
       0.0000     -76.13794510 -1.61D-07  0.00D+00  0.00D+00 0.0D+00      2.7

          Number of sigma calls:       10
                       o<<<<< (aa):             0.00
                       o<<<<< (bb):             0.00
                       o<<<<< (ab):             0.05
                       o<<<<< (total)           0.06
                       o<<<<< (aa) ff           0.00
                       o<<<<< (aa) gop          0.00
                       o<<<<< (aa) dot          0.00
                       o<<<<< (ab) str          0.00
                       o<<<<< (ab) gath         0.00
                       o<<<<< (ab) dotab        0.00
                       o<<<<< (ab) scat         0.00
                       o<<<<< (ab) sync         0.00
                       o<<<<< Density           0.03
                       o<<<<< Density one       0.00
                       o<<<<< Density two       0.01
                       o<<<<< Density ab        0.02
                       o<<<<< Spin adapt        0.32
                       o<<<<< Symm adapt        0.00

                       o<<<<< (ab) max sync:      0.00
       1.0000     -76.13794521 -5.98D-08 -5.98D-08  1.01D-07 3.7D-01      3.3

          Number of sigma calls:        9
                       o<<<<< (aa):             0.00
                       o<<<<< (bb):             0.00
                       o<<<<< (ab):             0.05
                       o<<<<< (total)           0.05
                       o<<<<< (aa) ff           0.00
                       o<<<<< (aa) gop          0.00
                       o<<<<< (aa) dot          0.00
                       o<<<<< (ab) str          0.00
                       o<<<<< (ab) gath         0.00
                       o<<<<< (ab) dotab        0.00
                       o<<<<< (ab) scat         0.00
                       o<<<<< (ab) sync         0.00
                       o<<<<< Density           0.00
                       o<<<<< Density one       0.00
                       o<<<<< Density two       0.00
                       o<<<<< Density ab        0.00
                       o<<<<< Spin adapt        0.25
                       o<<<<< Symm adapt        0.00

                       o<<<<< (ab) max sync:      0.00
       1.5902     -76.13794523 -7.87D-11 -7.47D-11  1.01D-07 4.9D-04      3.7



          %%%%% MacroIteration   3 %%%%%


          Number of sigma calls:        1
                       o<<<<< (aa):             0.00
                       o<<<<< (bb):             0.00
                       o<<<<< (ab):             0.01
                       o<<<<< (total)           0.01
                       o<<<<< (aa) ff           0.00
                       o<<<<< (aa) gop          0.00
                       o<<<<< (aa) dot          0.00
                       o<<<<< (ab) str          0.00
                       o<<<<< (ab) gath         0.00
                       o<<<<< (ab) dotab        0.00
                       o<<<<< (ab) scat         0.00
                       o<<<<< (ab) sync         0.00
                       o<<<<< Density           0.02
                       o<<<<< Density one       0.00
                       o<<<<< Density two       0.00
                       o<<<<< Density ab        0.01
                       o<<<<< Spin adapt        0.00
                       o<<<<< Symm adapt        0.00

                       o<<<<< (ab) max sync:      0.00

           >>>| Valence CI:            -85.702513697609
           >>>| MCSCF energy:          -76.137945226527
           >>>| Gradient norm:          0.190726651D-03
     --- Warning:    2 Hessian diagonals < 0.05 ---

                              ----- Line search ------

        step       energy         lsg     num-lsg   num-lsh   lsrat    time
      ------- ---------------- --------- --------- --------- ------- --------
       0.0000     -76.13794523 -1.61D-08  0.00D+00  0.00D+00 0.0D+00      3.9

          Number of sigma calls:        9
                       o<<<<< (aa):             0.00
                       o<<<<< (bb):             0.00
                       o<<<<< (ab):             0.04
                       o<<<<< (total)           0.05
                       o<<<<< (aa) ff           0.00
                       o<<<<< (aa) gop          0.00
                       o<<<<< (aa) dot          0.00
                       o<<<<< (ab) str          0.00
                       o<<<<< (ab) gath         0.00
                       o<<<<< (ab) dotab        0.00
                       o<<<<< (ab) scat         0.00
                       o<<<<< (ab) sync         0.00
                       o<<<<< Density           0.00
                       o<<<<< Density one       0.00
                       o<<<<< Density two       0.00
                       o<<<<< Density ab        0.00
                       o<<<<< Spin adapt        0.29
                       o<<<<< Symm adapt        0.00

                       o<<<<< (ab) max sync:      0.00
       1.0000     -76.13794524 -8.90D-09 -8.90D-09  7.24D-09 5.5D-01      4.3

          Number of sigma calls:        9
                       o<<<<< (aa):             0.00
                       o<<<<< (bb):             0.00
                       o<<<<< (ab):             0.04
                       o<<<<< (total)           0.05
                       o<<<<< (aa) ff           0.00
                       o<<<<< (aa) gop          0.00
                       o<<<<< (aa) dot          0.00
                       o<<<<< (ab) str          0.00
                       o<<<<< (ab) gath         0.00
                       o<<<<< (ab) dotab        0.00
                       o<<<<< (ab) scat         0.00
                       o<<<<< (ab) sync         0.00
                       o<<<<< Density           0.01
                       o<<<<< Density one       0.00
                       o<<<<< Density two       0.00
                       o<<<<< Density ab        0.01
                       o<<<<< Spin adapt        0.36
                       o<<<<< Symm adapt        0.00

                       o<<<<< (ab) max sync:      0.00
       2.2295     -76.13794524 -3.29D-12 -3.13D-12  7.24D-09 2.0D-04      4.9



          %%%%% MacroIteration   4 %%%%%


          Number of sigma calls:        1
                       o<<<<< (aa):             0.00
                       o<<<<< (bb):             0.00
                       o<<<<< (ab):             0.01
                       o<<<<< (total)           0.01
                       o<<<<< (aa) ff           0.00
                       o<<<<< (aa) gop          0.00
                       o<<<<< (aa) dot          0.00
                       o<<<<< (ab) str          0.00
                       o<<<<< (ab) gath         0.00
                       o<<<<< (ab) dotab        0.00
                       o<<<<< (ab) scat         0.00
                       o<<<<< (ab) sync         0.00
                       o<<<<< Density           0.01
                       o<<<<< Density one       0.00
                       o<<<<< Density two       0.00
                       o<<<<< Density ab        0.01
                       o<<<<< Spin adapt        0.00
                       o<<<<< Symm adapt        0.00

                       o<<<<< (ab) max sync:      0.00

           >>>| Valence CI:            -85.702513715600
           >>>| MCSCF energy:          -76.137945244518
           >>>| Gradient norm:          0.181150786D-03
     --- Warning:    2 Hessian diagonals < 0.05 ---

                              ----- Line search ------

        step       energy         lsg     num-lsg   num-lsh   lsrat    time
      ------- ---------------- --------- --------- --------- ------- --------
       0.0000     -76.13794524 -7.97D-09  0.00D+00  0.00D+00 0.0D+00      5.1

          Number of sigma calls:        9
                       o<<<<< (aa):             0.00
                       o<<<<< (bb):             0.00
                       o<<<<< (ab):             0.03
                       o<<<<< (total)           0.04
                       o<<<<< (aa) ff           0.00
                       o<<<<< (aa) gop          0.00
                       o<<<<< (aa) dot          0.00
                       o<<<<< (ab) str          0.00
                       o<<<<< (ab) gath         0.00
                       o<<<<< (ab) dotab        0.00
                       o<<<<< (ab) scat         0.00
                       o<<<<< (ab) sync         0.00
                       o<<<<< Density           0.02
                       o<<<<< Density one       0.00
                       o<<<<< Density two       0.00
                       o<<<<< Density ab        0.01
                       o<<<<< Spin adapt        0.27
                       o<<<<< Symm adapt        0.00

                       o<<<<< (ab) max sync:      0.00
       1.0000     -76.13794525 -3.95D-09 -3.95D-09  4.01D-09 5.0D-01      5.5

          Number of sigma calls:        9
                       o<<<<< (aa):             0.00
                       o<<<<< (bb):             0.00
                       o<<<<< (ab):             0.04
                       o<<<<< (total)           0.05
                       o<<<<< (aa) ff           0.00
                       o<<<<< (aa) gop          0.00
                       o<<<<< (aa) dot          0.00
                       o<<<<< (ab) str          0.00
                       o<<<<< (ab) gath         0.00
                       o<<<<< (ab) dotab        0.00
                       o<<<<< (ab) scat         0.00
                       o<<<<< (ab) sync         0.00
                       o<<<<< Density           0.01
                       o<<<<< Density one       0.00
                       o<<<<< Density two       0.00
                       o<<<<< Density ab        0.01
                       o<<<<< Spin adapt        0.27
                       o<<<<< Symm adapt        0.00

                       o<<<<< (ab) max sync:      0.00
       1.9844     -76.13794525 -1.33D-12 -1.31D-12  4.01D-09 1.7D-04      6.0



          %%%%% MacroIteration   5 %%%%%


          Number of sigma calls:        1
                       o<<<<< (aa):             0.00
                       o<<<<< (bb):             0.00
                       o<<<<< (ab):             0.01
                       o<<<<< (total)           0.01
                       o<<<<< (aa) ff           0.00
                       o<<<<< (aa) gop          0.00
                       o<<<<< (aa) dot          0.00
                       o<<<<< (ab) str          0.00
                       o<<<<< (ab) gath         0.00
                       o<<<<< (ab) dotab        0.00
                       o<<<<< (ab) scat         0.00
                       o<<<<< (ab) sync         0.00
                       o<<<<< Density           0.01
                       o<<<<< Density one       0.00
                       o<<<<< Density two       0.00
                       o<<<<< Density ab        0.00
                       o<<<<< Spin adapt        0.00
                       o<<<<< Symm adapt        0.00

                       o<<<<< (ab) max sync:      0.00

           >>>| Valence CI:            -85.702513723504
           >>>| MCSCF energy:          -76.137945252422
           >>>| Gradient norm:          0.574817309D-04




     ==============================
            MCSCF Converged
     ==============================



          Canonical Eigenvalues

              1      
    1  -20.5350
    2   -1.3728
    3   -0.7665
    4   -0.5900
    5   -0.5288
    6   -0.0256
    7   -0.0214
    8   -0.0160
    9    0.2827
   10    0.3350
   11    0.6150
   12    0.6530
   13    0.8097
   14    0.8538
   15    0.9740
   16    1.0890
   17    1.1994
   18    1.3738
   19    1.5050
   20    2.0051
   21    2.0074
   22    2.0920
   23    2.1424
   24    2.1908
   25    2.6218
   26    2.8925
   27    3.3946
   28    3.5259
   29    3.5332
   30    3.5888
   31    3.6553
   32    3.8690
   33    3.9374
   34    3.9567
   35    3.9911
   36    4.0418
   37    4.1895
   38    4.4040
   39    4.4805
   40    4.5444
   41    4.6879
   42    4.8835
   43    5.2995
   44    5.3445
   45    5.5713
   46    6.0830
   47    6.5888
   48    6.8882
   49    6.9199
   50    7.0128
   51    7.0851
   52    7.1401
   53    7.4254
   54    7.4764
   55    7.5194
   56    7.9149
   57    8.3809
   58   13.5676


          Converged CI vector

   Index           Coefficient          Config. Occupation
         1          0.97838039          1  2  3  4  5  1  2  3  4  5
        22          0.06801772          1  2  3  4  5  1  2  3  4  8
         3         -0.03489770          1  2  3  4  5  1  2  3  5  6
         8          0.02595955          1  2  3  4  5  1  2  3  5  7
         4         -0.02539003          1  2  3  4  5  1  2  4  5  6
         9         -0.03128117          1  2  3  4  5  1  2  4  5  7
        38         -0.02040038          1  2  3  4  5  1  2  4  7  8
      1177          0.06801772          1  2  3  4  8  1  2  3  4  5
      1198         -0.05105393          1  2  3  4  8  1  2  3  4  8
      1179          0.02235110          1  2  3  4  8  1  2  3  5  6
      1180          0.02264992          1  2  3  4  8  1  2  4  5  6
      1185          0.02701798          1  2  3  4  8  1  2  4  5  7
       113         -0.03489770          1  2  3  5  6  1  2  3  4  5
       134          0.02235110          1  2  3  5  6  1  2  3  4  8
       115         -0.03520843          1  2  3  5  6  1  2  3  5  6
       116         -0.02883216          1  2  3  5  6  1  2  4  5  6
       393          0.02595955          1  2  3  5  7  1  2  3  4  5
       400         -0.02097041          1  2  3  5  7  1  2  3  5  7
       401          0.02146457          1  2  3  5  7  1  2  4  5  7
       169         -0.02539003          1  2  4  5  6  1  2  3  4  5
       190          0.02264992          1  2  4  5  6  1  2  3  4  8
       171         -0.02883216          1  2  4  5  6  1  2  3  5  6
       172         -0.03946109          1  2  4  5  6  1  2  4  5  6
       173          0.02125932          1  2  4  5  6  1  3  4  5  6
       449         -0.03128117          1  2  4  5  7  1  2  3  4  5
       470          0.02701798          1  2  4  5  7  1  2  3  4  8
       456          0.02146457          1  2  4  5  7  1  2  3  5  7
       457         -0.03974184          1  2  4  5  7  1  2  4  5  7
       458         -0.02009629          1  2  4  5  7  1  3  4  5  7
      2073         -0.02040038          1  2  4  7  8  1  2  3  4  5
       228          0.02125932          1  3  4  5  6  1  2  4  5  6
       229         -0.02142173          1  3  4  5  6  1  3  4  5  6
       513         -0.02009629          1  3  4  5  7  1  2  4  5  7

          Number of sigma calls:        1
                       o<<<<< (aa):             0.00
                       o<<<<< (bb):             0.00
                       o<<<<< (ab):             0.01
                       o<<<<< (total)           0.01
                       o<<<<< (aa) ff           0.00
                       o<<<<< (aa) gop          0.00
                       o<<<<< (aa) dot          0.00
                       o<<<<< (ab) str          0.00
                       o<<<<< (ab) gath         0.00
                       o<<<<< (ab) dotab        0.00
                       o<<<<< (ab) scat         0.00
                       o<<<<< (ab) sync         0.00
                       o<<<<< Density           0.01
                       o<<<<< Density one       0.00
                       o<<<<< Density two       0.00
                       o<<<<< Density ab        0.01
                       o<<<<< Spin adapt        0.00
                       o<<<<< Symm adapt        0.00

                       o<<<<< (ab) max sync:      0.00



          Natural orbital occupation numbers

              1      
    1    2.0000
    2    1.9991
    3    1.9832
    4    1.9823
    5    1.9776
    6    0.0231
    7    0.0182
    8    0.0166


          Number of sigma calls:       15
                       o<<<<< (aa):             0.00
                       o<<<<< (bb):             0.01
                       o<<<<< (ab):             0.08
                       o<<<<< (total)           0.09
                       o<<<<< (aa) ff           0.00
                       o<<<<< (aa) gop          0.00
                       o<<<<< (aa) dot          0.00
                       o<<<<< (ab) str          0.00
                       o<<<<< (ab) gath         0.00
                       o<<<<< (ab) dotab        0.00
                       o<<<<< (ab) scat         0.00
                       o<<<<< (ab) sync         0.00
                       o<<<<< Density           0.02
                       o<<<<< Density one       0.00
                       o<<<<< Density two       0.00
                       o<<<<< Density ab        0.01
                       o<<<<< Spin adapt        0.40
                       o<<<<< Symm adapt        0.00

                       o<<<<< (ab) max sync:      0.00


       Final MCSCF results 
       ------------------- 

       Total MCSCF energy =    -76.137945252421
            Gradient norm =      5.7D-05

    CPU time for solution =      6.7s
   Wall time for solution =     11.4s



                        Analysis of MCSCF natural orbitals
                        ----------------------------------

 Vector    1  Occ=1.999988D+00  E=-2.053499D+01  Symmetry=a
              MO Center= -9.2D-02, -5.3D-02, -5.5D-10, r^2= 1.9D-02
   Bfn.  Coefficient  Atom+Function         Bfn.  Coefficient  Atom+Function  
  ----- ------------  ---------------      ----- ------------  ---------------
     1      0.969832  1 O  s          

 Vector    2  Occ=1.999091D+00  E=-1.372752D+00  Symmetry=a
              MO Center= -3.1D-01, -1.8D-01, -4.0D-07, r^2= 4.2D-01
   Bfn.  Coefficient  Atom+Function         Bfn.  Coefficient  Atom+Function  
  ----- ------------  ---------------      ----- ------------  ---------------
     2      0.505266  1 O  s                  4      0.381373  1 O  s          

 Vector    3  Occ=1.983163D+00  E=-7.665405D-01  Symmetry=a
              MO Center= -6.4D-02, -3.1D-02,  7.2D-07, r^2= 6.5D-01
   Bfn.  Coefficient  Atom+Function         Bfn.  Coefficient  Atom+Function  
  ----- ------------  ---------------      ----- ------------  ---------------
    10      0.429572  1 O  pz                13      0.384939  1 O  pz         
     7      0.358226  1 O  pz         

 Vector    4  Occ=1.982310D+00  E=-5.900065D-01  Symmetry=a
              MO Center= -4.0D-02,  3.4D-01, -2.2D-08, r^2= 5.5D-01
   Bfn.  Coefficient  Atom+Function         Bfn.  Coefficient  Atom+Function  
  ----- ------------  ---------------      ----- ------------  ---------------
     9      0.330608  1 O  py                 6      0.290525  1 O  py         
    32      0.262107  2 H  s                 31      0.201833  2 H  s          
    12      0.172599  1 O  py         

 Vector    5  Occ=1.977565D+00  E=-5.287842D-01  Symmetry=a
              MO Center=  3.4D-01, -1.7D-01,  7.7D-08, r^2= 5.9D-01
   Bfn.  Coefficient  Atom+Function         Bfn.  Coefficient  Atom+Function  
  ----- ------------  ---------------      ----- ------------  ---------------
     8      0.332305  1 O  px                 5      0.276626  1 O  px         
    46      0.264159  3 H  s                 11      0.192073  1 O  px         
    45      0.184548  3 H  s          

 Vector    6  Occ=2.313015D-02  E=-2.562400D-02  Symmetry=a
              MO Center=  5.1D-01, -2.1D-01,  1.4D-07, r^2= 6.2D-01
   Bfn.  Coefficient  Atom+Function         Bfn.  Coefficient  Atom+Function  
  ----- ------------  ---------------      ----- ------------  ---------------
    46      0.663376  3 H  s                  5     -0.530183  1 O  px         
     8     -0.425063  1 O  px                 2     -0.317614  1 O  s          
    45      0.299653  3 H  s                  4     -0.172213  1 O  s          
     3     -0.165044  1 O  s          

 Vector    7  Occ=1.816644D-02  E=-2.143529D-02  Symmetry=a
              MO Center= -2.3D-02,  4.9D-01,  1.2D-07, r^2= 6.3D-01
   Bfn.  Coefficient  Atom+Function         Bfn.  Coefficient  Atom+Function  
  ----- ------------  ---------------      ----- ------------  ---------------
    32      0.684983  2 H  s                  6     -0.588172  1 O  py         
     9     -0.396277  1 O  py                31      0.298657  2 H  s          
     2     -0.268042  1 O  s                  4     -0.242181  1 O  s          
     3     -0.159220  1 O  s          

 Vector    8  Occ=1.658654D-02  E=-1.599997D-02  Symmetry=a
              MO Center= -3.1D-03,  4.1D-03,  4.6D-07, r^2= 1.1D+00
   Bfn.  Coefficient  Atom+Function         Bfn.  Coefficient  Atom+Function  
  ----- ------------  ---------------      ----- ------------  ---------------
    13      0.759257  1 O  pz                 7     -0.662668  1 O  pz         
    10     -0.289898  1 O  pz         

 Vector    9  Occ=0.000000D+00  E= 2.827289D-01  Symmetry=a
              MO Center=  1.5D-01,  3.4D-01, -2.5D-07, r^2= 4.7D+00
   Bfn.  Coefficient  Atom+Function         Bfn.  Coefficient  Atom+Function  
  ----- ------------  ---------------      ----- ------------  ---------------
     4      2.655759  1 O  s                 33     -1.388180  2 H  s          
    47     -0.947477  3 H  s                 12      0.698073  1 O  py         
    32     -0.697602  2 H  s                 11      0.658346  1 O  px         
    38      0.591765  2 H  py                51      0.393386  3 H  px         
    46     -0.281280  3 H  s                 52     -0.157673  3 H  py         

 Vector   10  Occ=0.000000D+00  E= 3.350305D-01  Symmetry=a
              MO Center=  6.8D-01,  1.4D-01, -6.0D-08, r^2= 5.5D+00
   Bfn.  Coefficient  Atom+Function         Bfn.  Coefficient  Atom+Function  
  ----- ------------  ---------------      ----- ------------  ---------------
    47     -2.189281  3 H  s                 33      2.027073  2 H  s          
    12     -0.736680  1 O  py                11      0.494144  1 O  px         
    46      0.367404  3 H  s                 38     -0.341803  2 H  py         
    51      0.329401  3 H  px         

 Vector   11  Occ=0.000000D+00  E= 6.149603D-01  Symmetry=a
              MO Center=  2.4D-01, -4.4D-02, -8.2D-08, r^2= 2.0D+00
   Bfn.  Coefficient  Atom+Function         Bfn.  Coefficient  Atom+Function  
  ----- ------------  ---------------      ----- ------------  ---------------
     4      3.587268  1 O  s                 32     -3.355642  2 H  s          
    12      1.804225  1 O  py                46     -1.617351  3 H  s          
    11      1.037324  1 O  px                38      0.690965  2 H  py         
    51      0.393868  3 H  px                47      0.236399  3 H  s          
     2      0.208428  1 O  s                 21     -0.182505  1 O  d  0       

 Vector   12  Occ=0.000000D+00  E= 6.529543D-01  Symmetry=a
              MO Center= -4.0D-01, -3.5D-02, -7.0D-08, r^2= 2.4D+00
   Bfn.  Coefficient  Atom+Function         Bfn.  Coefficient  Atom+Function  
  ----- ------------  ---------------      ----- ------------  ---------------
    46      2.719118  3 H  s                 11     -2.181087  1 O  px         
    12      2.105616  1 O  py                32     -1.564542  2 H  s          
    33     -0.878457  2 H  s                 51     -0.816756  3 H  px         
    47      0.809182  3 H  s                  4     -0.745355  1 O  s          
    38      0.486477  2 H  py                23     -0.330581  1 O  d  2       

 Vector   13  Occ=0.000000D+00  E= 8.096651D-01  Symmetry=a
              MO Center= -1.6D-01, -1.5D-01, -1.4D-07, r^2= 2.1D+00
   Bfn.  Coefficient  Atom+Function         Bfn.  Coefficient  Atom+Function  
  ----- ------------  ---------------      ----- ------------  ---------------
     4      1.793262  1 O  s                 11      1.585871  1 O  px         
    32     -1.584126  2 H  s                 12      1.222044  1 O  py         
    46     -1.210071  3 H  s                 37     -0.991028  2 H  px         
    52     -0.977889  3 H  py                38      0.340684  2 H  py         
     2      0.189077  1 O  s                 19      0.177358  1 O  d -2       

 Vector   14  Occ=0.000000D+00  E= 8.538040D-01  Symmetry=a
              MO Center=  4.1D-01,  1.4D-01, -2.5D-07, r^2= 1.7D+00
   Bfn.  Coefficient  Atom+Function         Bfn.  Coefficient  Atom+Function  
  ----- ------------  ---------------      ----- ------------  ---------------
    53     -0.897492  3 H  pz                39      0.824122  2 H  pz         

 Vector   15  Occ=0.000000D+00  E= 9.740317D-01  Symmetry=a
              MO Center=  2.2D-02,  7.4D-02, -1.5D-06, r^2= 2.0D+00
   Bfn.  Coefficient  Atom+Function         Bfn.  Coefficient  Atom+Function  
  ----- ------------  ---------------      ----- ------------  ---------------
    13      1.380485  1 O  pz                39     -1.153494  2 H  pz         
    53     -0.935796  3 H  pz         

 Vector   16  Occ=0.000000D+00  E= 1.088995D+00  Symmetry=a
              MO Center= -1.5D-01, -6.4D-02,  7.5D-07, r^2= 2.0D+00
   Bfn.  Coefficient  Atom+Function         Bfn.  Coefficient  Atom+Function  
  ----- ------------  ---------------      ----- ------------  ---------------
     4      7.752364  1 O  s                 32     -4.186457  2 H  s          
    46     -2.440577  3 H  s                 38      1.876727  2 H  py         
    12      1.550419  1 O  py                11      1.085346  1 O  px         
    51      0.938033  3 H  px                33     -0.896645  2 H  s          
     9      0.884293  1 O  py                52     -0.736506  3 H  py         

 Vector   17  Occ=0.000000D+00  E= 1.199356D+00  Symmetry=a
              MO Center=  2.6D-01,  1.7D-01, -2.9D-09, r^2= 2.1D+00
   Bfn.  Coefficient  Atom+Function         Bfn.  Coefficient  Atom+Function  
  ----- ------------  ---------------      ----- ------------  ---------------
    12      1.433248  1 O  py                46      1.319130  3 H  s          
    37      1.309303  2 H  px                11     -1.297211  1 O  px         
    52     -0.942710  3 H  py                 4     -0.776945  1 O  s          
    32     -0.694712  2 H  s                 51     -0.676336  3 H  px         
    47      0.231639  3 H  s                  8     -0.203895  1 O  px         

 Vector   18  Occ=0.000000D+00  E= 1.373766D+00  Symmetry=a
              MO Center=  1.2D+00, -5.2D-01, -6.4D-08, r^2= 1.2D+00
   Bfn.  Coefficient  Atom+Function         Bfn.  Coefficient  Atom+Function  
  ----- ------------  ---------------      ----- ------------  ---------------
    51      2.542086  3 H  px                46     -2.148689  3 H  s          
     4      2.000585  1 O  s                 11      1.162672  1 O  px         
    47     -1.099505  3 H  s                 52     -0.868643  3 H  py         
    12     -0.800685  1 O  py                 8      0.750360  1 O  px         
    32      0.635821  2 H  s                  9     -0.577822  1 O  py         


 Wrote Lagrangian and 1- and 2-particle density matrices to ./H2O.mcpdm


     Multipole analysis of the density
     ---------------------------------

     L   x y z        total        nuclear
     -   - - -        -----        -------
     0   0 0 0     -0.000000     10.000000

     1   1 0 0      0.591513     -0.000000
     1   0 1 0      0.367288     -0.000000
     1   0 0 1     -0.000001      0.000000

     2   2 0 0     -4.038774      2.679864
     2   1 1 0     -0.789967     -1.290401
     2   1 0 1     -0.000000      0.000000
     2   0 2 0     -3.661030      3.014061
     2   0 1 1     -0.000000      0.000000
     2   0 0 2     -5.427078      0.000000


  Mulliken analysis of the total density
  --------------------------------------

    Atom       Charge   Shell Charges
 -----------   ------   -------------------------------------------------------
    1 O    8     8.45   1.95  0.99  0.23  0.59  1.31  2.10  1.26  0.00  0.01  0.00
    2 H    1     0.79   0.30  0.36  0.03  0.03  0.07  0.01
    3 H    1     0.76   0.25  0.38  0.05  0.02  0.06  0.01

    Mulliken analysis of the active space density
    ---------------------------------------------

    Atom       Charge   Shell Charges
 -----------   ------   -------------------------------------------------------
    1 O    8     8.45   1.95  0.99  0.23  0.59  1.31  2.10  1.26  0.00  0.01  0.00
    2 H    1     0.79   0.30  0.36  0.03  0.03  0.07  0.01
    3 H    1     0.76   0.25  0.38  0.05  0.02  0.06  0.01

 Parallel integral file used      16 records with       0 large values


 Task  times  cpu:        6.7s     wall:       11.4s


                                NWChem Input Module
                                -------------------


                                 NWChem SCF Module
                                 -----------------


                                        H2O



  ao basis        = "ao basis"
  functions       =    58
  atoms           =     3
  closed shells   =     5
  open shells     =     0
  charge          =   0.00
  wavefunction    = RHF 
  input vectors   = ./h2o.mos
  output vectors  = ./h2o-trash.mos
  use symmetry    = F
  symmetry adapt  = F


 Summary of "ao basis" -> "ao basis" (spherical)
 ------------------------------------------------------------------------------
       Tag                 Description            Shells   Functions and Types
 ---------------- ------------------------------  ------  ---------------------
 O                          cc-pVTZ                 10       30   4s3p2d1f
 H                          cc-pVTZ                  6       14   3s2p1d



 Forming initial guess at      11.4s


 Loading old vectors from job with title :

H2O


 Starting SCF solution at      11.4s



 ----------------------------------------------
         Quadratically convergent ROHF

 Convergence threshold     :          1.000E-04
 Maximum no. of iterations :           30
 Final Fock-matrix accuracy:          1.000E-07
 ----------------------------------------------


 Integral file          = ./H2O.aoints.0
 Record size in doubles =  65536        No. of integs per rec  =  43688
 Max. records in memory =     49        Max. records in file   = 252570
 No. of bits per label  =      8        No. of bits per value  =     64


 #quartets = 3.213D+04 #integrals = 6.608D+05 #direct =  0.0% #cached =100.0%



       Final RHF  results 
       ------------------ 

         Total SCF energy =    -76.048061021979
      One-electron energy =   -123.747995440023
      Two-electron energy =     38.135365946962
 Nuclear repulsion energy =      9.564568471082

        Time for solution =      0.1s


             Final eigenvalues
             -----------------

              1      
    1  -20.5350
    2   -1.3728
    3   -0.7665
    4   -0.5900
    5   -0.5288
    6   -0.0256
    7   -0.0214
    8   -0.0160
    9    0.2827
   10    0.3350
   11    0.6150
   12    0.6530
   13    0.8097
   14    0.8538
   15    0.9740

                       ROHF Final Molecular Orbital Analysis
                       -------------------------------------

 Vector    2  Occ=2.000000D+00  E=-1.372752D+00
              MO Center= -3.1D-01, -1.8D-01, -4.0D-07, r^2= 4.2D-01
   Bfn.  Coefficient  Atom+Function         Bfn.  Coefficient  Atom+Function  
  ----- ------------  ---------------      ----- ------------  ---------------
     2      0.505266  1 O  s                  4      0.381373  1 O  s          

 Vector    3  Occ=2.000000D+00  E=-7.665405D-01
              MO Center= -6.4D-02, -3.1D-02,  7.2D-07, r^2= 6.5D-01
   Bfn.  Coefficient  Atom+Function         Bfn.  Coefficient  Atom+Function  
  ----- ------------  ---------------      ----- ------------  ---------------
    10      0.429572  1 O  pz                13      0.384939  1 O  pz         
     7      0.358226  1 O  pz         

 Vector    4  Occ=2.000000D+00  E=-5.900065D-01
              MO Center= -4.0D-02,  3.4D-01, -2.2D-08, r^2= 5.5D-01
   Bfn.  Coefficient  Atom+Function         Bfn.  Coefficient  Atom+Function  
  ----- ------------  ---------------      ----- ------------  ---------------
     9      0.330608  1 O  py                 6      0.290525  1 O  py         
    32      0.262107  2 H  s                 31      0.201833  2 H  s          
    12      0.172599  1 O  py         

 Vector    5  Occ=2.000000D+00  E=-5.287842D-01
              MO Center=  3.4D-01, -1.7D-01,  7.7D-08, r^2= 5.9D-01
   Bfn.  Coefficient  Atom+Function         Bfn.  Coefficient  Atom+Function  
  ----- ------------  ---------------      ----- ------------  ---------------
     8      0.332305  1 O  px                 5      0.276626  1 O  px         
    46      0.264159  3 H  s                 11      0.192073  1 O  px         
    45      0.184548  3 H  s          

 Vector    6  Occ=0.000000D+00  E=-2.562400D-02
              MO Center=  5.1D-01, -2.1D-01,  1.4D-07, r^2= 6.2D-01
   Bfn.  Coefficient  Atom+Function         Bfn.  Coefficient  Atom+Function  
  ----- ------------  ---------------      ----- ------------  ---------------
    46      0.663376  3 H  s                  5     -0.530183  1 O  px         
     8     -0.425063  1 O  px                 2     -0.317614  1 O  s          
    45      0.299653  3 H  s                  4     -0.172213  1 O  s          
     3     -0.165044  1 O  s          

 Vector    7  Occ=0.000000D+00  E=-2.143529D-02
              MO Center= -2.3D-02,  4.9D-01,  1.2D-07, r^2= 6.3D-01
   Bfn.  Coefficient  Atom+Function         Bfn.  Coefficient  Atom+Function  
  ----- ------------  ---------------      ----- ------------  ---------------
    32      0.684983  2 H  s                  6     -0.588172  1 O  py         
     9     -0.396277  1 O  py                31      0.298657  2 H  s          
     2     -0.268042  1 O  s                  4     -0.242181  1 O  s          
     3     -0.159220  1 O  s          

 Vector    8  Occ=0.000000D+00  E=-1.599997D-02
              MO Center= -3.1D-03,  4.1D-03,  4.6D-07, r^2= 1.1D+00
   Bfn.  Coefficient  Atom+Function         Bfn.  Coefficient  Atom+Function  
  ----- ------------  ---------------      ----- ------------  ---------------
    13      0.759257  1 O  pz                 7     -0.662668  1 O  pz         
    10     -0.289898  1 O  pz         

 Vector    9  Occ=0.000000D+00  E= 2.827289D-01
              MO Center=  1.5D-01,  3.4D-01, -2.5D-07, r^2= 4.7D+00
   Bfn.  Coefficient  Atom+Function         Bfn.  Coefficient  Atom+Function  
  ----- ------------  ---------------      ----- ------------  ---------------
     4      2.655759  1 O  s                 33     -1.388180  2 H  s          
    47     -0.947477  3 H  s                 12      0.698073  1 O  py         
    32     -0.697602  2 H  s                 11      0.658346  1 O  px         
    38      0.591765  2 H  py                51      0.393386  3 H  px         
    46     -0.281280  3 H  s                 52     -0.157673  3 H  py         

 Vector   10  Occ=0.000000D+00  E= 3.350305D-01
              MO Center=  6.8D-01,  1.4D-01, -6.0D-08, r^2= 5.5D+00
   Bfn.  Coefficient  Atom+Function         Bfn.  Coefficient  Atom+Function  
  ----- ------------  ---------------      ----- ------------  ---------------
    47     -2.189281  3 H  s                 33      2.027073  2 H  s          
    12     -0.736680  1 O  py                11      0.494144  1 O  px         
    46      0.367404  3 H  s                 38     -0.341803  2 H  py         
    51      0.329401  3 H  px         

 Vector   11  Occ=0.000000D+00  E= 6.149603D-01
              MO Center=  2.4D-01, -4.4D-02, -8.2D-08, r^2= 2.0D+00
   Bfn.  Coefficient  Atom+Function         Bfn.  Coefficient  Atom+Function  
  ----- ------------  ---------------      ----- ------------  ---------------
     4      3.587268  1 O  s                 32     -3.355642  2 H  s          
    12      1.804225  1 O  py                46     -1.617351  3 H  s          
    11      1.037324  1 O  px                38      0.690965  2 H  py         
    51      0.393868  3 H  px                47      0.236399  3 H  s          
     2      0.208428  1 O  s                 21     -0.182505  1 O  d  0       

 Vector   12  Occ=0.000000D+00  E= 6.529543D-01
              MO Center= -4.0D-01, -3.5D-02, -7.0D-08, r^2= 2.4D+00
   Bfn.  Coefficient  Atom+Function         Bfn.  Coefficient  Atom+Function  
  ----- ------------  ---------------      ----- ------------  ---------------
    46      2.719118  3 H  s                 11     -2.181087  1 O  px         
    12      2.105616  1 O  py                32     -1.564542  2 H  s          
    33     -0.878457  2 H  s                 51     -0.816756  3 H  px         
    47      0.809182  3 H  s                  4     -0.745355  1 O  s          
    38      0.486477  2 H  py                23     -0.330581  1 O  d  2       

 Vector   13  Occ=0.000000D+00  E= 8.096651D-01
              MO Center= -1.6D-01, -1.5D-01, -1.4D-07, r^2= 2.1D+00
   Bfn.  Coefficient  Atom+Function         Bfn.  Coefficient  Atom+Function  
  ----- ------------  ---------------      ----- ------------  ---------------
     4      1.793262  1 O  s                 11      1.585871  1 O  px         
    32     -1.584126  2 H  s                 12      1.222044  1 O  py         
    46     -1.210071  3 H  s                 37     -0.991028  2 H  px         
    52     -0.977889  3 H  py                38      0.340684  2 H  py         
     2      0.189077  1 O  s                 19      0.177358  1 O  d -2       

 Vector   14  Occ=0.000000D+00  E= 8.538040D-01
              MO Center=  4.1D-01,  1.4D-01, -2.5D-07, r^2= 1.7D+00
   Bfn.  Coefficient  Atom+Function         Bfn.  Coefficient  Atom+Function  
  ----- ------------  ---------------      ----- ------------  ---------------
    53     -0.897492  3 H  pz                39      0.824122  2 H  pz         

 Vector   15  Occ=0.000000D+00  E= 9.740317D-01
              MO Center=  2.2D-02,  7.4D-02, -1.5D-06, r^2= 2.0D+00
   Bfn.  Coefficient  Atom+Function         Bfn.  Coefficient  Atom+Function  
  ----- ------------  ---------------      ----- ------------  ---------------
    13      1.380485  1 O  pz                39     -1.153494  2 H  pz         
    53     -0.935796  3 H  pz         


 center of mass
 --------------
 x =  -0.07599894 y =  -0.04369332 z =   0.00000000

 moments of inertia (a.u.)
 ------------------
           3.081332329386           1.224511989344           0.000000000000
           1.224511989344           2.833002082974           0.000000000000
           0.000000000000           0.000000000000           5.914334412360

  Mulliken analysis of the total density
  --------------------------------------

    Atom       Charge   Shell Charges
 -----------   ------   -------------------------------------------------------
    1 O    8     8.45   1.95  0.99  0.23  0.59  1.30  2.11  1.27  0.00  0.01  0.00
    2 H    1     0.79   0.30  0.36  0.03  0.03  0.07  0.01
    3 H    1     0.76   0.25  0.38  0.05  0.02  0.06  0.01

       Multipole analysis of the density wrt the origin
       ------------------------------------------------

     L   x y z        total         open         nuclear
     -   - - -        -----         ----         -------
     0   0 0 0     -0.000000      0.000000     10.000000

     1   1 0 0      0.602042      0.000000     -0.000000
     1   0 1 0      0.372231      0.000000     -0.000000
     1   0 0 1     -0.000001      0.000000      0.000000

     2   2 0 0     -4.017028      0.000000      2.679864
     2   1 1 0     -0.795680      0.000000     -1.290401
     2   1 0 1     -0.000000      0.000000      0.000000
     2   0 2 0     -3.639766      0.000000      3.014061
     2   0 1 1     -0.000000      0.000000      0.000000
     2   0 0 2     -5.411019      0.000000      0.000000


 Parallel integral file used      16 records with       0 large values

                   NWChem Extensible Many-Electron Theory Module
                   ---------------------------------------------

              ======================================================
                   This portion of the program was automatically
                  generated by a Tensor Contraction Engine (TCE).
                  The development of this portion of the program
                 and TCE was supported by US Department of Energy,
                Office of Science, Office of Basic Energy Science.
                      TCE is a product of Battelle and PNNL.
              Please cite: S.Hirata, J.Phys.Chem.A 107, 9887 (2003).
              ======================================================

                                        H2O


            General Information
            -------------------
      Number of processors :     1
         Wavefunction type : Restricted Hartree-Fock
          No. of electrons :    10
           Alpha electrons :     5
            Beta electrons :     5
           No. of orbitals :   116
            Alpha orbitals :    58
             Beta orbitals :    58
        Alpha frozen cores :     0
         Beta frozen cores :     0
     Alpha frozen virtuals :     0
      Beta frozen virtuals :     0
         Spin multiplicity : singlet 
    Number of AO functions :    58
       Number of AO shells :    22
        Use of symmetry is : off
      Symmetry adaption is : off
         Schwarz screening : 0.10D-09

          Correlation Information
          -----------------------
          Calculation type : Coupled-cluster singles & doubles                           
   Perturbative correction : none                                                        
            Max iterations :      100
        Residual threshold : 0.10D-06
     T(0) DIIS level shift : 0.00D+00
     L(0) DIIS level shift : 0.00D+00
     T(1) DIIS level shift : 0.00D+00
     L(1) DIIS level shift : 0.00D+00
     T(R) DIIS level shift : 0.00D+00
     T(I) DIIS level shift : 0.00D+00
   CC-T/L Amplitude update :  5-th order DIIS
                I/O scheme : Global Array Library
        L-threshold :  0.10D-06
        EOM-threshold :  0.10D-06
 no EOMCCSD initial starts read in
 TCE RESTART OPTIONS
 READ_INT:   F
 WRITE_INT:  F
 READ_TA:    F
 WRITE_TA:   F
 READ_XA:    F
 WRITE_XA:   F
 READ_IN3:   F
 WRITE_IN3:  F
 SLICE:      F
 D4D5:       F
 quantumc:   F
 qrotation:  F
 pwtce:      F
 qducc:      T
 nacto:                         0
 nrotv:                         0
 nrot:                          0

            Memory Information
            ------------------
          Available GA space size is    1610609372 doubles
          Available MA space size is    1610609772 doubles

 Maximum block size        32 doubles

 tile_dim =     27

 Block   Spin    Irrep     Size     Offset   Alpha
 -------------------------------------------------
   1    alpha     a      5 doubles       0       1
   2    beta      a      5 doubles       5       1
   3    alpha     a     26 doubles      10       3
   4    alpha     a     27 doubles      36       4
   5    beta      a     26 doubles      63       3
   6    beta      a     27 doubles      89       4

 Global array virtual files algorithm will be used

 Parallel file system coherency ......... OK

 Integral file          = ./H2O.aoints.0
 Record size in doubles =  65536        No. of integs per rec  =  43688
 Max. records in memory =     49        Max. records in file   = 252570
 No. of bits per label  =      8        No. of bits per value  =     64


 #quartets = 3.213D+04 #integrals = 6.608D+05 #direct =  0.0% #cached =100.0%


 Fock matrix recomputed
 1-e file size   =             3364
 1-e file name   = ./H2O.f1
 Cpu & wall time / sec            0.1            0.1
 4-electron integrals stored in orbital form

 v2    file size   =          3631290
 4-index algorithm nr.  13 is used
 imaxsize =       30
 imaxsize ichop =        0
 Cpu & wall time / sec            1.8            1.8
 T1-number-of-tasks                    2

 t1 file size   =              265
 t1 file name   = ./H2O.t1
 t1 file handle =       -998
 T2-number-of-boxes                    7

 t2 file size   =           122900
 t2 file name   = ./H2O.t2
 t2 file handle =       -996
CCSD iterations
 ---------------------------------------------------------
 Iter          Residuum       Correlation     Cpu    Wall 
 ---------------------------------------------------------
NEW TASK SCHEDULING
CCSD_T1_NTS --- OK
CCSD_T2_NTS --- OK
    1   1.2516072341143  -0.4457764822815     0.2     0.2
    2   2.5081145060363   0.0965954810212     0.2     0.3
    3   5.4088032805324  -1.0379275099395     0.2     0.3
    4  12.2667044462527   1.3391770872757     0.3     0.3
    5  13.3857727021370  -3.1352236763123     0.3     0.3
 MICROCYCLE DIIS UPDATE:                    5                    5
    6   0.1071133401481  -0.2707462334888     0.4     0.5
    7   0.1229763845680  -0.2838740956617     0.3     0.3
    8   0.2794192608110  -0.2507737726624     0.3     0.4
    9   0.6690547719575  -0.2996822837896     0.4     0.4
   10   1.6152023994964   0.0725739648670     0.3     0.3
 MICROCYCLE DIIS UPDATE:                   10                    5
   11   0.0135510082805  -0.2790651754603     0.3     0.3
   12   0.0114964769680  -0.2784682922278     0.3     0.3
   13   0.0244402898355  -0.2811906068211     0.3     0.3
   14   0.0613633168769  -0.2736183204355     0.3     0.3
   15   0.1547542226140  -0.2905322798207     0.3     0.3
 MICROCYCLE DIIS UPDATE:                   15                    5
   16   0.0009107250675  -0.2793678824363     0.3     0.3
   17   0.0010231337684  -0.2792590022055     0.3     0.3
   18   0.0021951642827  -0.2795725484929     0.2     0.3
   19   0.0054123079287  -0.2787917350585     0.4     0.4
   20   0.0134042668199  -0.2807239899610     0.3     0.3
 MICROCYCLE DIIS UPDATE:                   20                    5
   21   0.0001008854701  -0.2793530651890     0.3     0.3
   22   0.0001101889956  -0.2793552974508     0.3     0.3
   23   0.0001981380257  -0.2793526419029     0.2     0.2
   24   0.0004214859722  -0.2793528248871     0.2     0.2
   25   0.0009254352762  -0.2793657458874     0.2     0.2
 MICROCYCLE DIIS UPDATE:                   25                    5
   26   0.0000215052912  -0.2793545534531     0.2     0.2
   27   0.0000214433661  -0.2793525651189     0.3     0.3
   28   0.0000401492759  -0.2793581238365     0.3     0.3
   29   0.0000918368349  -0.2793448926264     0.3     0.3
   30   0.0002162907349  -0.2793762819860     0.4     0.4
 MICROCYCLE DIIS UPDATE:                   30                    5
   31   0.0000035505061  -0.2793541895863     0.2     0.2
   32   0.0000038153184  -0.2793542481700     0.4     0.4
   33   0.0000071293715  -0.2793542147780     0.3     0.3
   34   0.0000159650286  -0.2793539860927     0.3     0.3
   35   0.0000366715101  -0.2793551939075     0.3     0.3
 MICROCYCLE DIIS UPDATE:                   35                    5
   36   0.0000008114664  -0.2793542290676     0.3     0.3
   37   0.0000007455106  -0.2793541742025     0.3     0.3
   38   0.0000013388594  -0.2793543427144     0.3     0.3
   39   0.0000030150599  -0.2793539264654     0.3     0.3
   40   0.0000070148497  -0.2793549290225     0.2     0.2
 MICROCYCLE DIIS UPDATE:                   40                    5
   41   0.0000001441917  -0.2793542219475     0.2     0.2
   42   0.0000001673567  -0.2793542192177     0.3     0.3
   43   0.0000003247330  -0.2793542290382     0.3     0.3
   44   0.0000007487289  -0.2793541960275     0.2     0.3
   45   0.0000017633034  -0.2793542989592     0.3     0.3
 MICROCYCLE DIIS UPDATE:                   45                    5
   46   0.0000000336873  -0.2793542225158     0.3     0.3
 -----------------------------------------------------------------
 Iterations converged
 CCSD correlation energy / hartree =        -0.279354222515781
 CCSD total energy / hartree       =       -76.327415244495228

 Singles contributions

 Doubles contributions
     6a   (alpha)     7a   (alpha) ---     4a   (alpha)     5a   (alpha)        0.0204556181
     6a   (alpha)     7a   (alpha) ---     5a   (alpha)     4a   (alpha)       -0.0204556181
     6a   (alpha)     8a   (alpha) ---     3a   (alpha)     5a   (alpha)        0.0261563990
     6a   (alpha)     8a   (alpha) ---     5a   (alpha)     3a   (alpha)       -0.0261563990
     7a   (alpha)     6a   (alpha) ---     4a   (alpha)     5a   (alpha)       -0.0204556181
     7a   (alpha)     6a   (alpha) ---     5a   (alpha)     4a   (alpha)        0.0204556181
     7a   (alpha)     8a   (alpha) ---     3a   (alpha)     4a   (alpha)        0.0251103894
     7a   (alpha)     8a   (alpha) ---     4a   (alpha)     3a   (alpha)       -0.0251103894
     8a   (alpha)     6a   (alpha) ---     3a   (alpha)     5a   (alpha)       -0.0261563990
     8a   (alpha)     6a   (alpha) ---     5a   (alpha)     3a   (alpha)        0.0261563990
     8a   (alpha)     7a   (alpha) ---     3a   (alpha)     4a   (alpha)       -0.0251103894
     8a   (alpha)     7a   (alpha) ---     4a   (alpha)     3a   (alpha)        0.0251103894
     6a   (alpha)     6a   (beta ) ---     5a   (alpha)     5a   (beta )       -0.0792085985
     6a   (alpha)     7a   (beta ) ---     5a   (alpha)     4a   (beta )       -0.0295695359
     6a   (alpha)     8a   (beta ) ---     5a   (alpha)     3a   (beta )       -0.0359390680
     7a   (alpha)     6a   (beta ) ---     4a   (alpha)     5a   (beta )       -0.0295695359
     7a   (alpha)     7a   (beta ) ---     4a   (alpha)     4a   (beta )       -0.0640824136
     7a   (alpha)     8a   (beta ) ---     4a   (alpha)     3a   (beta )       -0.0341486509
     8a   (alpha)     6a   (beta ) ---     3a   (alpha)     5a   (beta )       -0.0359390680
     8a   (alpha)     7a   (beta ) ---     3a   (alpha)     4a   (beta )       -0.0341486509
     8a   (alpha)     8a   (beta ) ---     3a   (alpha)     3a   (beta )       -0.0521337149
     8a   (alpha)    16a   (beta ) ---     3a   (alpha)     2a   (beta )       -0.0219828337
    16a   (alpha)     8a   (beta ) ---     2a   (alpha)     3a   (beta )       -0.0219828337
 Ground state specification:
 exp(T)|Ref>~(1+T)|Ref>
 ------- a(p)+/a(q) strings ----------

 singles norm

 doubles norm

 Reference string
   1.0000000000000000      :(1a)+ (2a)+ (3a)+ (4a)+ (5a)+ (1b)+ (2b)+ (3b)+ (4b)+ (5b)+ |0>

 Singles strings

 Doubles strings
 -------------------------------------
 enrep_tce =    9.5645684710819872     
  EHF(total)         =       -76.04806102
  Shift (HFtot-HFA)  =         0.00000000
 ALL OCCUPIED ORBITALS ARE ACTIVE IN DUCC --> NO SHIFT
 Number of active orbitals                    8
 Number of active alpha electrons                    5
 Number of active beta electrons                    5
  nos                    10
  nvs                   106
 noas                     5
 nobs                     5
 nvas                    53
 nvbs                    53
 nactv                     3
 DUCC MODEL =                     6
 NONHF =  T
 F-T1 correlation    =   -4.0495999723892839E-005
 V-T1-T1 correlation =    6.0212094290543129E-006
 V-T2 correlation    =  -0.27931974772555562     
 Total correlation   =  -0.27935422251585046     
 F-T1(Ext) correlation         =   -4.9899602353422015E-005
 V-T1(Ext)-T1(Ext) correlation =    1.6736954047440380E-006
 V-T2(Ext) correlation         =  -0.19597900390529288     
 Total Ext correlation         =  -0.19602722981224155     
1-BODY TIME =  280.070 SECONDS.
  HHHH TIME =  289.871 SECONDS.
  PPPP TIME =    1.558 SECONDS.
  HHHP TIME =   31.641 SECONDS.
  PPPH TIME =    2.729 SECONDS.
  HPHP TIME =   22.091 SECONDS.
  HHPP TIME =    8.428 SECONDS.
 ONE-BODY UNITARY CHECK
 TWO-BODY UNITARY CHECK
                    1                    1                    1                    2   2.6471529842512257E-011
                    1                    1                    1                    4  -2.0298362161008850E-011
                    1                    1                    1                    5  -2.6140037252043194E-011
                    1                    1                    2                    1  -2.6471501126853127E-011
                    1                    1                    2                    4  -2.7522186129007535E-011
                    1                    1                    2                    5  -1.6435641129332378E-011
                    1                    1                    4                    1   2.0298359518429423E-011
                    1                    1                    4                    2   2.7522186235706389E-011
                    1                    1                    4                    5  -8.2863514785315759E-012
                    1                    1                    5                    1   2.6140032382683218E-011
                    1                    1                    5                    2   1.6435641095667368E-011
                    1                    1                    5                    4   8.2863514593215469E-012
                    1                    2                    1                    1  -2.6471529842512257E-011
                    1                    2                    1                    4   3.0061557410032691E-011
                    1                    2                    1                    5   5.1375530565889171E-011
                    1                    2                    2                    1   2.0059864880295208E-010
                    1                    2                    2                    2  -3.7230116159885580E-010
                    1                    2                    2                    4  -9.9070689152380709E-011
                    1                    2                    2                    5  -1.9752023107388883E-010
                    1                    2                    4                    1  -1.0442841903712807E-010
                    1                    2                    4                    2   3.6061870503645288E-010
                    1                    2                    4                    4  -6.1726901482264939E-011
                    1                    2                    4                    5  -6.5043072951286376E-011
                    1                    2                    5                    1  -8.6092120411829232E-011
                    1                    2                    5                    2   3.4775626822636241E-010
                    1                    2                    5                    4  -1.1429317114584024E-010
                    1                    2                    5                    5  -2.8045253369392058E-011
                    1                    3                    2                    3  -5.7520641374986248E-010
                    1                    3                    3                    1   1.8886703312404052E-010
                    1                    3                    3                    2  -1.5153402751350020E-010
                    1                    3                    3                    4  -4.9566391789601649E-010
                    1                    3                    3                    5  -6.8661250469947976E-010
                    1                    3                    4                    3   1.0240214613765897E-009
                    1                    3                    5                    3   1.1627994209867376E-009
                    1                    4                    1                    1   2.0298362161008850E-011
                    1                    4                    1                    2  -3.0061557410032691E-011
                    1                    4                    2                    1  -7.3020513247090690E-011
                    1                    4                    2                    2   1.4018866395696646E-010
                    1                    4                    2                    4  -2.5324747680854909E-010
                    1                    4                    2                    5   2.0906464808382653E-010
                    1                    4                    3                    3   4.2917682364385821E-011
                    1                    4                    4                    1  -1.9469981182851370E-011
                    1                    4                    4                    2   4.1114968547806274E-010
                    1                    4                    4                    4  -1.3077974462549138E-010
                    1                    4                    4                    5  -8.9995960423500110E-010
                    1                    4                    5                    1   5.7949006704305361E-011
                    1                    4                    5                    2  -5.6849349596446936E-010
                    1                    4                    5                    4   1.3977764293238160E-009
                    1                    4                    5                    5   1.2775050002914760E-010
                    1                    5                    1                    1   2.6140037252043194E-011
                    1                    5                    1                    2  -5.1375530565889171E-011
                    1                    5                    2                    1  -4.1785058919885376E-011
                    1                    5                    2                    2   3.9623540059476318E-011
                    1                    5                    2                    4   3.3208479355609742E-010
                    1                    5                    2                    5  -3.5767938090514040E-010
                    1                    5                    3                    3   3.6022125602418561E-011
                    1                    5                    4                    1   5.1005644152724017E-011
                    1                    5                    4                    2  -5.5090666644980364E-010
                    1                    5                    4                    4   1.5595765028888763E-010
                    1                    5                    4                    5   1.2328373920691971E-009
                    1                    5                    5                    1  -1.8242085619846193E-010
                    1                    5                    5                    2   1.1866538619786926E-009
                    1                    5                    5                    4  -1.1892626111328908E-009
                    1                    5                    5                    5  -3.1382736392729614E-010
                    1                    6                    1                    7  -2.1755777669836551E-010
                    1                    6                    1                    9  -7.6357808964644391E-011
                    1                    6                    1                   10  -6.2098270969812575E-011
                    1                    6                    2                    6   1.5910240974085360E-010
                    1                    6                    2                    7  -8.0763864346300451E-010
                    1                    6                    2                    9   1.0835789427190989E-010
                    1                    6                    2                   10   7.3770054301314225E-011
                    1                    6                    3                    8  -3.5897705988330308E-010
                    1                    6                    4                    6   2.6527252616759256E-011
                    1                    6                    4                    7  -5.4426782525318629E-011
                    1                    6                    4                    9  -1.9137892312559579E-010
                    1                    6                    4                   10   2.0596982366200001E-010
                    1                    6                    5                    6   1.3301026946521688E-012
                    1                    6                    5                    7  -2.3469072171766747E-011
                    1                    6                    5                    9   2.5937705499037844E-010
                    1                    6                    5                   10  -1.1855951984052204E-010
                    1                    6                    6                    2   2.4402927584470796E-010
                    1                    6                    6                    4   5.6059337727454306E-011
                    1                    6                    6                    5   3.5958305777405997E-011
                    1                    6                    7                    1  -1.8557390606827040E-010
                    1                    6                    7                    2   8.0763864346300451E-010
                    1                    6                    7                    4  -1.3588006674697395E-010
                    1                    6                    7                    5  -9.0205705318563423E-011
                    1                    6                    8                    3   3.5897705988330308E-010
                    1                    6                    9                    1  -6.2287813795691704E-012
                    1                    6                    9                    2   8.1948955434063553E-011
                    1                    6                    9                    4   1.9137892312559579E-010
                    1                    6                    9                    5  -2.1425617313317047E-010
                    1                    6                   10                    1   2.4809862497754409E-011
                    1                    6                   10                    2   3.9904714515398565E-011
                    1                    6                   10                    4  -2.5109070551920798E-010
                    1                    6                   10                    5   1.1855951984052204E-010
                    1                    7                    1                    6   2.1755777669836551E-010
                    1                    7                    1                    9   4.4030331464162131E-011
                    1                    7                    1                   10   5.0893391063955296E-011
                    1                    7                    2                    6   3.2629035064124512E-010
                    1                    7                    2                    7  -6.5620353248418972E-010
                    1                    7                    2                    9   5.0004176754131491E-010
                    1                    7                    2                   10   7.8343410773486222E-010
                    1                    7                    3                    8   1.1379561667967941E-009
                    1                    7                    4                    6  -2.9088014245545746E-010
                    1                    7                    4                    7   1.3593238982340106E-009
[...]
    8    2    3    1       -0.0189801589
    8    2    3    2       -0.0509765900
    8    2    3    3       -0.0000000357
    8    2    3    4       -0.0054068336
    8    2    3    5       -0.0063442833
    8    2    3    6        0.0126117394
    8    2    3    7        0.0109647776
    8    2    3    8        0.0000000289
    8    3    3    1       -0.0000000106
    8    3    3    2       -0.0000000496
    8    3    3    3       -0.1993826816
    8    3    3    4        0.0000000120
    8    3    3    5       -0.0000000113
    8    3    3    6        0.0000000340
    8    3    3    7        0.0000000933
    8    3    3    8        0.1620652566
    8    4    3    1       -0.0033237238
    8    4    3    2       -0.0010068474
    8    4    3    3        0.0000001109
    8    4    3    4       -0.0067337198
    8    4    3    5       -0.0005145257
    8    4    3    6        0.0027583120
    8    4    3    7        0.0179535321
    8    4    3    8       -0.0000000829
    8    5    3    1       -0.0035813616
    8    5    3    2       -0.0016530829
    8    5    3    3        0.0000000252
    8    5    3    4       -0.0005024410
    8    5    3    5       -0.0055062261
    8    5    3    6        0.0175487251
    8    5    3    7        0.0009218762
    8    5    3    8       -0.0000000174
    8    6    3    1        0.0071924685
    8    6    3    2        0.0272514240
    8    6    3    3        0.0000000121
    8    6    3    4        0.0074383979
    8    6    3    5        0.0299935273
    8    6    3    6       -0.0191263819
    8    6    3    7       -0.0027335045
    8    6    3    8        0.0000000093
    8    7    3    1        0.0063907105
    8    7    3    2        0.0240262256
    8    7    3    3        0.0000000518
    8    7    3    4        0.0303046908
    8    7    3    5        0.0043525747
    8    7    3    6       -0.0028331909
    8    7    3    7       -0.0176172119
    8    7    3    8       -0.0000000077
    8    8    3    1        0.0000000047
    8    8    3    2        0.0000000917
    8    8    3    3        0.6636278319
    8    8    3    4       -0.0000000160
    8    8    3    5        0.0000000242
    8    8    3    6       -0.0000000354
    8    8    3    7       -0.0000001054
    8    8    3    8       -0.1929484443
    8    1    4    1        0.0000000175
    8    1    4    2        0.0000000268
    8    1    4    3       -0.0078112071
    8    1    4    4        0.0000000168
    8    1    4    5        0.0000000073
    8    1    4    6       -0.0000000091
    8    1    4    7       -0.0000000068
    8    1    4    8        0.0041427621
    8    2    4    1        0.0000000135
    8    2    4    2        0.0000000361
    8    2    4    3       -0.0049826472
    8    2    4    4        0.0000000229
    8    2    4    5        0.0000000025
    8    2    4    6       -0.0000000100
    8    2    4    7       -0.0000000133
    8    2    4    8        0.0039545169
    8    3    4    1        0.0034635069
    8    3    4    2        0.0045311007
    8    3    4    3        0.0000000119
    8    3    4    4       -0.1514256508
    8    3    4    5       -0.0030177667
    8    3    4    6        0.0079850749
    8    3    4    7        0.1220710468
    8    3    4    8       -0.0000000829
    8    4    4    1       -0.0000000027
    8    4    4    2        0.0000000010
    8    4    4    3       -0.0059953848
    8    4    4    4        0.0000001069
    8    4    4    5        0.0000000016
    8    4    4    6       -0.0000000064
    8    4    4    7       -0.0000000842
    8    4    4    8        0.0169311109
    8    5    4    1        0.0000000013
    8    5    4    2       -0.0000000039
    8    5    4    3       -0.0005249557
    8    5    4    4        0.0000000220
    8    5    4    5        0.0000000028
    8    5    4    6       -0.0000000112
    8    5    4    7       -0.0000000227
    8    5    4    8        0.0017373534
    8    6    4    1       -0.0000000037
    8    6    4    2       -0.0000000187
    8    6    4    3        0.0076122493
    8    6    4    4       -0.0000000384
    8    6    4    5       -0.0000000181
    8    6    4    6        0.0000000122
    8    6    4    7        0.0000000171
    8    6    4    8       -0.0009202480
    8    7    4    1        0.0000000025
    8    7    4    2       -0.0000000088
    8    7    4    3        0.0296187112
    8    7    4    4       -0.0000000383
    8    7    4    5       -0.0000000053
    8    7    4    6        0.0000000033
    8    7    4    7        0.0000000044
    8    7    4    8       -0.0080952006
    8    8    4    1       -0.0059965776
    8    8    4    2        0.0066342559
    8    8    4    3       -0.0000000160
    8    8    4    4        0.5908681825
    8    8    4    5        0.0090196375
    8    8    4    6       -0.0108360563
    8    8    4    7       -0.1596495606
    8    8    4    8        0.0000001176
    8    1    5    1        0.0000000025
    8    1    5    2        0.0000000123
    8    1    5    3       -0.0082210803
    8    1    5    4        0.0000000073
    8    1    5    5        0.0000000118
    8    1    5    6       -0.0000000041
    8    1    5    7       -0.0000000037
    8    1    5    8        0.0045037427
    8    2    5    1        0.0000000054
    8    2    5    2        0.0000000123
    8    2    5    3       -0.0059097676
    8    2    5    4        0.0000000022
    8    2    5    5        0.0000000170
    8    2    5    6       -0.0000000127
    8    2    5    7       -0.0000000034
    8    2    5    8        0.0049190625
    8    3    5    1        0.0034619633
    8    3    5    2        0.0022189012
    8    3    5    3       -0.0000000113
    8    3    5    4       -0.0030480922
    8    3    5    5       -0.1410018724
    8    3    5    6        0.1207568350
    8    3    5    7       -0.0059929795
    8    3    5    8       -0.0000000174
    8    4    5    1       -0.0000000017
    8    4    5    2       -0.0000000051
    8    4    5    3       -0.0005510974
    8    4    5    4        0.0000000018
    8    4    5    5        0.0000000838
    8    4    5    6       -0.0000000757
    8    4    5    7        0.0000000016
    8    4    5    8        0.0017373534
    8    5    5    1       -0.0000000021
    8    5    5    2        0.0000000031
    8    5    5    3       -0.0047930054
    8    5    5    4        0.0000000024
    8    5    5    5        0.0000000276
    8    5    5    6       -0.0000000279
    8    5    5    7        0.0000000011
    8    5    5    8        0.0173377975
    8    6    5    1        0.0000000047
    8    6    5    2       -0.0000000058
    8    6    5    3        0.0292065043
    8    6    5    4       -0.0000000176
    8    6    5    5       -0.0000000422
    8    6    5    6        0.0000000062
    8    6    5    7        0.0000000004
    8    6    5    8       -0.0073609076
    8    7    5    1       -0.0000000017
    8    7    5    2       -0.0000000084
    8    7    5    3        0.0045892920
    8    7    5    4       -0.0000000056
    8    7    5    5       -0.0000000128
    8    7    5    6        0.0000000031
    8    7    5    7        0.0000000010
    8    7    5    8        0.0000264141
    8    8    5    1       -0.0059082903
    8    8    5    2        0.0081697823
    8    8    5    3        0.0000000242
    8    8    5    4        0.0090196375
    8    8    5    5        0.5750299390
    8    8    5    6       -0.1610196446
    8    8    5    7        0.0079525434
    8    8    5    8        0.0000000317
    8    1    6    1       -0.0000000005
    8    1    6    2       -0.0000000115
    8    1    6    3        0.0096774882
    8    1    6    4       -0.0000000085
    8    1    6    5       -0.0000000034
    8    1    6    6        0.0000000112
    8    1    6    7        0.0000000055
    8    1    6    8       -0.0124989871
    8    2    6    1       -0.0000000068
    8    2    6    2       -0.0000000219
    8    2    6    3        0.0132146507
    8    2    6    4       -0.0000000100
    8    2    6    5       -0.0000000160
    8    2    6    6        0.0000000079
    8    2    6    7        0.0000000056
    8    2    6    8       -0.0096797464
    8    3    6    1       -0.0056714064
    8    3    6    2        0.0091252421
    8    3    6    3        0.0000000253
    8    3    6    4        0.0070936641
    8    3    6    5        0.1179010476
    8    3    6    6       -0.1770082396
    8    3    6    7        0.0036061292
    8    3    6    8        0.0000000093
    8    4    6    1        0.0000000034
    8    4    6    2       -0.0000000054
    8    4    6    3        0.0024376718
    8    4    6    4       -0.0000000060
    8    4    6    5       -0.0000000732
    8    4    6    6        0.0000001059
    8    4    6    7       -0.0000000012
    8    4    6    8       -0.0009202480
    8    5    6    1        0.0000000035
    8    5    6    2       -0.0000000059
    8    5    6    3        0.0178844675
    8    5    6    4       -0.0000000115
    8    5    6    5       -0.0000000318
    8    5    6    6        0.0000000280
    8    5    6    7       -0.0000000008
    8    5    6    8       -0.0073609076
    8    6    6    1       -0.0000000074
    8    6    6    2       -0.0000000047
    8    6    6    3       -0.0192606191
    8    6    6    4        0.0000000124
    8    6    6    5        0.0000000073
    8    6    6    6       -0.0000000399
    8    6    6    7        0.0000000003
    8    6    6    8        0.0330561858
    8    7    6    1        0.0000000025
    8    7    6    2        0.0000000096
    8    7    6    3       -0.0030456190
    8    7    6    4        0.0000000035
    8    7    6    5        0.0000000034
    8    7    6    6       -0.0000000113
    8    7    6    7        0.0000000007
    8    7    6    8        0.0065886627
    8    8    6    1        0.0082398495
    8    8    6    2       -0.0101223590
    8    8    6    3       -0.0000000354
    8    8    6    4       -0.0108360563
    8    8    6    5       -0.1610196446
    8    8    6    6        0.6074674013
    8    8    6    7       -0.0010777299
    8    8    6    8       -0.0000000102
    8    1    7    1        0.0000000049
    8    1    7    2       -0.0000000074
    8    1    7    3        0.0085123651
    8    1    7    4       -0.0000000060
    8    1    7    5       -0.0000000034
    8    1    7    6        0.0000000056
    8    1    7    7        0.0000000056
    8    1    7    8       -0.0110540464
    8    2    7    1       -0.0000000044
    8    2    7    2       -0.0000000167
    8    2    7    3        0.0116712428
    8    2    7    4       -0.0000000180
    8    2    7    5       -0.0000000027
    8    2    7    6        0.0000000056
    8    2    7    7        0.0000000049
    8    2    7    8       -0.0081545683
    8    3    7    1       -0.0050697494
    8    3    7    2        0.0081372856
    8    3    7    3        0.0000000891
    8    3    7    4        0.1185456612
    8    3    7    5       -0.0065196466
    8    3    7    6        0.0036776329
    8    3    7    7       -0.1835406022
    8    3    7    8       -0.0000000077
    8    4    7    1        0.0000000066
    8    4    7    2       -0.0000000073
    8    4    7    3        0.0183463838
    8    4    7    4       -0.0000000849
    8    4    7    5        0.0000000015
    8    4    7    6       -0.0000000010
    8    4    7    7        0.0000001129
    8    4    7    8       -0.0080952006
    8    5    7    1        0.0000000009
    8    5    7    2       -0.0000000010
    8    5    7    3        0.0006480946
    8    5    7    4       -0.0000000218
    8    5    7    5        0.0000000020
    8    5    7    6       -0.0000000011
    8    5    7    7        0.0000000270
    8    5    7    8        0.0000264141
    8    6    7    1        0.0000000007
    8    6    7    2        0.0000000086
    8    6    7    3       -0.0029050085
    8    6    7    4        0.0000000179
    8    6    7    5        0.0000000002
    8    6    7    6        0.0000000003
    8    6    7    7       -0.0000000311
    8    6    7    8        0.0065886627
    8    7    7    1       -0.0000000101
    8    7    7    2       -0.0000000115
    8    7    7    3       -0.0176487398
    8    7    7    4        0.0000000046
    8    7    7    5        0.0000000011
    8    7    7    6        0.0000000007
    8    7    7    7       -0.0000000006
    8    7    7    8        0.0328295891
    8    8    7    1        0.0071572824
    8    8    7    2       -0.0076575584
    8    8    7    3       -0.0000001054
    8    8    7    4       -0.1596495606
    8    8    7    5        0.0079525434
    8    8    7    6       -0.0010777299
    8    8    7    7        0.6184465662
    8    8    7    8        0.0000000118
    8    1    8    1        0.0553819006
    8    1    8    2        0.0273626290
    8    1    8    3        0.0000000221
    8    1    8    4        0.0038762667
    8    1    8    5        0.0042503912
    8    1    8    6       -0.0123037325
    8    1    8    7       -0.0108767176
    8    1    8    8       -0.0000000240
    8    2    8    1        0.0273626290
    8    2    8    2        0.0527174401
    8    2    8    3        0.0000000195
    8    2    8    4        0.0037980155
    8    2    8    5        0.0048845332
    8    2    8    6       -0.0104272308
    8    2    8    7       -0.0088177843
    8    2    8    8       -0.0000000226
    8    3    8    1        0.0000000221
    8    3    8    2        0.0000000195
    8    3    8    3        0.1589539344
    8    3    8    4       -0.0000000821
    8    3    8    5       -0.0000000187
    8    3    8    6        0.0000000104
    8    3    8    7       -0.0000000075
    8    3    8    8       -0.1929484443
    8    4    8    1        0.0038762667
    8    4    8    2        0.0037980155
    8    4    8    3       -0.0000000821
    8    4    8    4        0.0160685600
    8    4    8    5        0.0016189344
    8    4    8    6       -0.0008419314
    8    4    8    7       -0.0084235446
    8    4    8    8        0.0000001176
    8    5    8    1        0.0042503912
    8    5    8    2        0.0048845332
    8    5    8    3       -0.0000000187
    8    5    8    4        0.0016189344
    8    5    8    5        0.0170793238
    8    5    8    6       -0.0076887602
    8    5    8    7        0.0001104214
    8    5    8    8        0.0000000317
    8    6    8    1       -0.0123037325
    8    6    8    2       -0.0104272308
    8    6    8    3        0.0000000104
    8    6    8    4       -0.0008419314
    8    6    8    5       -0.0076887602
    8    6    8    6        0.0330816409
    8    6    8    7        0.0065602213
    8    6    8    8       -0.0000000102
    8    7    8    1       -0.0108767176
    8    7    8    2       -0.0088177843
    8    7    8    3       -0.0000000075
    8    7    8    4       -0.0084235446
    8    7    8    5        0.0001104214
    8    7    8    6        0.0065602213
    8    7    8    7        0.0328609549
    8    7    8    8        0.0000000118
    8    8    8    1       -0.0000000240
    8    8    8    2       -0.0000000226
    8    8    8    3       -0.1929484443
    8    8    8    4        0.0000001176
    8    8    8    5        0.0000000317
    8    8    8    6       -0.0000000102
    8    8    8    7        0.0000000118
    8    8    8    8        0.6396413302
 end_two_electron_integrals

 Parallel integral file used      16 records with       0 large values


 Task  times  cpu:      666.7s     wall:      669.4s


                                NWChem Input Module
                                -------------------


 Summary of allocated global arrays
-----------------------------------
  No active global arrays


MA_summarize_allocated_blocks: starting scan ...
MA_summarize_allocated_blocks: scan completed: 0 heap blocks, 0 stack blocks
MA usage statistics:

	allocation statistics:
					      heap	     stack
					      ----	     -----
	current number of blocks	         0	         0
	maximum number of blocks	        18	        42
	current total bytes		         0	         0
	maximum total bytes		  25775960	4725685720
	maximum total K-bytes		     25776	   4725686
	maximum total M-bytes		        26	      4726


                                     CITATION
                                     --------
                Please cite the following reference when publishing
                           results obtained with NWChem:

          E. Apra, E. J. Bylaska, W. A. de Jong, N. Govind, K. Kowalski,
       T. P. Straatsma, M. Valiev, H. J. J. van Dam, Y. Alexeev, J. Anchell,
       V. Anisimov, F. W. Aquino, R. Atta-Fynn, J. Autschbach, N. P. Bauman,
     J. C. Becca, D. E. Bernholdt, K. Bhaskaran-Nair, S. Bogatko, P. Borowski,
         J. Boschen, J. Brabec, A. Bruner, E. Cauet, Y. Chen, G. N. Chuev,
      C. J. Cramer, J. Daily, M. J. O. Deegan, T. H. Dunning Jr., M. Dupuis,
   K. G. Dyall, G. I. Fann, S. A. Fischer, A. Fonari, H. Fruchtl, L. Gagliardi,
      J. Garza, N. Gawande, S. Ghosh, K. Glaesemann, A. W. Gotz, J. Hammond,
       V. Helms, E. D. Hermes, K. Hirao, S. Hirata, M. Jacquelin, L. Jensen,
   B. G. Johnson, H. Jonsson, R. A. Kendall, M. Klemm, R. Kobayashi, V. Konkov,
      S. Krishnamoorthy, M. Krishnan, Z. Lin, R. D. Lins, R. J. Littlefield,
      A. J. Logsdail, K. Lopata, W. Ma, A. V. Marenich, J. Martin del Campo,
   D. Mejia-Rodriguez, J. E. Moore, J. M. Mullin, T. Nakajima, D. R. Nascimento,
    J. A. Nichols, P. J. Nichols, J. Nieplocha, A. Otero-de-la-Roza, B. Palmer,
    A. Panyala, T. Pirojsirikul, B. Peng, R. Peverati, J. Pittner, L. Pollack,
   R. M. Richard, P. Sadayappan, G. C. Schatz, W. A. Shelton, D. W. Silverstein,
   D. M. A. Smith, T. A. Soares, D. Song, M. Swart, H. L. Taylor, G. S. Thomas,
            V. Tipparaju, D. G. Truhlar, K. Tsemekhman, T. Van Voorhis,
      A. Vazquez-Mayagoitia, P. Verma, O. Villa, A. Vishnu, K. D. Vogiatzis,
        D. Wang, J. H. Weare, M. J. Williamson, T. L. Windus, K. Wolinski,
        A. T. Wong, Q. Wu, C. Yang, Q. Yu, M. Zacharias, Z. Zhang, Y. Zhao,
                                and R. J. Harrison
                        "NWChem: Past, present, and future
                         J. Chem. Phys. 152, 184102 (2020)
                               doi:10.1063/5.0004997

                                      AUTHORS
                                      -------
  E. Apra, E. J. Bylaska, N. Govind, K. Kowalski, M. Valiev, D. Mejia-Rodriguez,
       A. Kunitsa, N. P. Bauman, A. Panyala, W. A. de Jong, T. P. Straatsma,
        H. J. J. van Dam, D. Wang, T. L. Windus, J. Hammond, J. Autschbach,
    K. Bhaskaran-Nair, J. Brabec, K. Lopata, S. A. Fischer, S. Krishnamoorthy,
     M. Jacquelin, W. Ma, M. Klemm, O. Villa, Y. Chen, V. Anisimov, F. Aquino,
    S. Hirata, M. T. Hackler, Eric Hermes, L. Jensen, J. E. Moore, J. C. Becca,
      V. Konjkov, T. Risthaus, M. Malagoli, A. Marenich, A. Otero-de-la-Roza,
        J. Mullin, P. Nichols, R. Peverati, J. Pittner, Y. Zhao, P.-D. Fan,
        A. Fonari, M. J. Williamson, R. J. Harrison, J. R. Rehr, M. Dupuis,
     D. Silverstein, D. M. A. Smith, J. Nieplocha, V. Tipparaju, M. Krishnan,
     B. E. Van Kuiken, A. Vazquez-Mayagoitia, M. Swart, Q. Wu, T. Van Voorhis,
     A. A. Auer, M. Nooijen, L. D. Crosby, E. Brown, G. Cisneros, G. I. Fann,
   H. Fruchtl, J. Garza, K. Hirao, R. A. Kendall, J. A. Nichols, K. Tsemekhman,
    K. Wolinski, J. Anchell, D. E. Bernholdt, P. Borowski, T. Clark, D. Clerc,
   H. Dachsel, M. J. O. Deegan, K. Dyall, D. Elwood, E. Glendening, M. Gutowski,
   A. C. Hess, J. Jaffe, B. G. Johnson, J. Ju, R. Kobayashi, R. Kutteh, Z. Lin,
   R. Littlefield, X. Long, B. Meng, T. Nakajima, S. Niu, L. Pollack, M. Rosing,
   K. Glaesemann, G. Sandrone, M. Stave, H. Taylor, G. Thomas, J. H. van Lenthe,
                               A. T. Wong, Z. Zhang.

 Total times  cpu:      673.5s     wall:      680.8s
