 argument  1 = input.nw
  NWChem w/ OpenMP: maximum threads =    1



============================== echo of input deck ==============================
 echo
 start H2O
 title "H2O"

 memory total 24 gb

 geometry units bohr
 symmetry c1
        O  0.00000000  0.00000000  0.00000000
        H  0.00000000  1.85266725  0.00000000
        H  1.72558000 -0.64860000  0.00000000
 end

 basis spherical
   * library cc-pVTZ
 end

 mcscf
   active  8
   actelec 10
   multiplicity 1
   maxiter 40
   vectors input h2o.mos
   vectors output h2o.mos
 end

 task mcscf

 scf
   vectors input h2o.mos
   vectors output h2o-trash.mos
   noscf
 end

 tce
   2eorb
   2emet 13
   ccsd
 end

# set tce:print_integrals T
# set tce:qorb 8
# set tce:qela 5
# set tce:qelb 5

 set tce:qducc T
 set tce:nactv 3
 set tce:nonhf T
 set tce:ducc_model 6

 set tce:printtol 0.02

 task tce
================================================================================


                                         
                                         


             Northwest Computational Chemistry Package (NWChem) 7.0.1
             --------------------------------------------------------


                    Environmental Molecular Sciences Laboratory
                       Pacific Northwest National Laboratory
                                Richland, WA 99352

                              Copyright (c) 1994-2020
                       Pacific Northwest National Laboratory
                            Battelle Memorial Institute

             NWChem is an open-source computational chemistry package
                        distributed under the terms of the
                      Educational Community License (ECL) 2.0
             A copy of the license is included with this distribution
                              in the LICENSE.TXT file

                                  ACKNOWLEDGMENT
                                  --------------

            This software and its documentation were developed at the
            EMSL at Pacific Northwest National Laboratory, a multiprogram
            national laboratory, operated for the U.S. Department of Energy
            by Battelle under Contract Number DE-AC05-76RL01830. Support
            for this work was provided by the Department of Energy Office
            of Biological and Environmental Research, Office of Basic
            Energy Sciences, and the Office of Advanced Scientific Computing.


           Job information
           ---------------

    hostname        = WE46210
    program         = /home/baum612/code/nwchem/bin/LINUX64/nwchem
    date            = Fri Feb 16 11:12:17 2024

    compiled        = Fri_Feb_16_11:09:52_2024
    source          = /home/baum612/code/nwchem
    nwchem branch   = 7.0.0
    nwchem revision = nwchem_on_git-4191-g39d87d64de
    ga revision     = 5.8.1
    use scalapack   = F
    input           = input.nw
    prefix          = H2O.
    data base       = ./H2O.db
    status          = startup
    nproc           =        1
    time left       =     -1s



           Memory information
           ------------------

    heap     =  805306362 doubles =   6144.0 Mbytes
    stack    =  805306367 doubles =   6144.0 Mbytes
    global   = 1610612736 doubles =  12288.0 Mbytes (distinct from heap & stack)
    total    = 3221225465 doubles =  24576.0 Mbytes
    verify   = yes
    hardfail = no 


           Directory information
           ---------------------

  0 permanent = .
  0 scratch   = .




                                NWChem Input Module
                                -------------------


                                        H2O
                                        ---
 Turning off AUTOSYM since
 SYMMETRY directive was detected!


          ------
          auto-z
          ------
  no constraints, skipping    0.0000000000000000     
  no constraints, skipping    0.0000000000000000     


                             Geometry "geometry" -> ""
                             -------------------------

 Output coordinates in a.u. (scale by  1.000000000 to convert to a.u.)

  No.       Tag          Charge          X              Y              Z
 ---- ---------------- ---------- -------------- -------------- --------------
    1 O                    8.0000    -0.17255800    -0.12040673     0.00000000
    2 H                    1.0000    -0.17255800     1.73226053     0.00000000
    3 H                    1.0000     1.55302200    -0.76900673     0.00000000

      Atomic Mass 
      ----------- 

      O                 15.994910
      H                  1.007825


 Effective nuclear repulsion energy (a.u.)       8.9868709426

            Nuclear Dipole moment (a.u.) 
            ----------------------------
        X                 Y               Z
 ---------------- ---------------- ----------------
    -0.0000000000     0.0000000000     0.0000000000



                                Z-matrix (autoz)
                                -------- 

 Units are Angstrom for bonds and degrees for angles

      Type          Name      I     J     K     L     M      Value
      ----------- --------  ----- ----- ----- ----- ----- ----------
    1 Stretch                  1     2                       0.98039
    2 Stretch                  1     3                       0.97551
    3 Bend                     2     1     3               110.59992


            XYZ format geometry
            -------------------
     3
 geometry
 O                    -0.09131377    -0.06371650     0.00000000
 H                    -0.09131377     0.91667286     0.00000000
 H                     0.82182391    -0.40694086     0.00000000

 ==============================================================================
                                internuclear distances
 ------------------------------------------------------------------------------
       center one      |      center two      | atomic units |       a.u.
 ------------------------------------------------------------------------------
    2 H                |   1 O                |     1.85267  |     1.85267
    3 H                |   1 O                |     1.84345  |     1.84345
 ------------------------------------------------------------------------------
                         number of included internuclear distances:          2
 ==============================================================================



 ==============================================================================
                                 internuclear angles
 ------------------------------------------------------------------------------
        center 1       |       center 2       |       center 3       |  degrees
 ------------------------------------------------------------------------------
    2 H                |   1 O                |   3 H                |   110.60
 ------------------------------------------------------------------------------
                            number of included internuclear angles:          1
 ==============================================================================





 Summary of "ao basis" -> "" (spherical)
 ------------------------------------------------------------------------------
       Tag                 Description            Shells   Functions and Types
 ---------------- ------------------------------  ------  ---------------------
 *                          cc-pVTZ                   on all atoms 


                      Basis "ao basis" -> "ao basis" (spherical)
                      -----
  O (Oxygen)
  ----------
            Exponent  Coefficients 
       -------------- ---------------------------------------------------------
  1 S  1.53300000E+04  0.000508
  1 S  2.29900000E+03  0.003929
  1 S  5.22400000E+02  0.020243
  1 S  1.47300000E+02  0.079181
  1 S  4.75500000E+01  0.230687
  1 S  1.67600000E+01  0.433118
  1 S  6.20700000E+00  0.350260
  1 S  6.88200000E-01 -0.008154

  2 S  1.53300000E+04 -0.000115
  2 S  2.29900000E+03 -0.000895
  2 S  5.22400000E+02 -0.004636
  2 S  1.47300000E+02 -0.018724
  2 S  4.75500000E+01 -0.058463
  2 S  1.67600000E+01 -0.136463
  2 S  6.20700000E+00 -0.175740
  2 S  6.88200000E-01  0.603418

  3 S  1.75200000E+00  1.000000

  4 S  2.38400000E-01  1.000000

  5 P  3.44600000E+01  0.015928
  5 P  7.74900000E+00  0.099740
  5 P  2.28000000E+00  0.310492

  6 P  7.15600000E-01  1.000000

  7 P  2.14000000E-01  1.000000

  8 D  2.31400000E+00  1.000000

  9 D  6.45000000E-01  1.000000

 10 F  1.42800000E+00  1.000000

  H (Hydrogen)
  ------------
            Exponent  Coefficients 
       -------------- ---------------------------------------------------------
  1 S  3.38700000E+01  0.006068
  1 S  5.09500000E+00  0.045308
  1 S  1.15900000E+00  0.202822

  2 S  3.25800000E-01  1.000000

  3 S  1.02700000E-01  1.000000

  4 P  1.40700000E+00  1.000000

  5 P  3.88000000E-01  1.000000

  6 D  1.05700000E+00  1.000000



 Summary of "ao basis" -> "ao basis" (spherical)
 ------------------------------------------------------------------------------
       Tag                 Description            Shells   Functions and Types
 ---------------- ------------------------------  ------  ---------------------
 O                          cc-pVTZ                 10       30   4s3p2d1f
 H                          cc-pVTZ                  6       14   3s2p1d



                            NWChem Direct MCSCF Module
                            --------------------------


                                        H2O


     -----------------------------------
       Basis functions:             58
       Inactive shells:              0
       Active shells:                8
       Active electrons:            10
       Symmetry:                    a       
       Multiplicity:                 1
       Orbital rotations:          400
     -----------------------------------

     -----------------------------------
       E2 extrapolation:             F
       Conjugacy:                    T
       Micro CI relax:               T
       Canonical orbitals:           T
       Maximum iterations:          40
       Converge threshold:    1.00E-04
       Conjugacy resets:            20
       Initial levelshift:        0.10
     -----------------------------------

 Loading old vectors from job with title :

H2O


   input molecular orbitals = ./h2o.mos
  output molecular orbtials = ./h2o.mos

       No. of determinants:          3136


  Starting Orbital Energies
   -20.554679    -1.332031    -0.710576    -0.562357    -0.500860     0.141068
     0.201186     0.547988     0.568905     0.677949     0.788433     0.800968
     0.832593     0.844842     0.978804     1.138795     1.169134     1.525784
     1.526452     1.999652     2.072602     2.084198     2.139732     2.246546
     2.635597     2.927226     3.406292     3.508524     3.522512     3.590012
     3.792557     3.867450     3.876565     3.932647     4.034261     4.090014
     4.157856     4.323585     4.424882     4.441129     4.671015     4.829607
     5.050226     5.249361     5.548544     5.978210     6.396246     6.894548
     6.915334     6.961869     6.988841     7.111322     7.133215     7.181596
     7.491326     7.706967     8.168585    12.614756

  Orbital Symmetry Irreps
a    a    a    a    a    a    a    a    a    a    a    a    a    a    a   
a    a    a    a    a    a    a    a    a    a    a    a    a    a    a   
a    a    a    a    a    a    a    a    a    a    a    a    a    a    a   
a    a    a    a    a    a    a    a    a    a    a    a    a   

 Integral file          = ./H2O.aoints.0
 Record size in doubles =  65536        No. of integs per rec  =  43688
 Max. records in memory =     49        Max. records in file   = 252460
 No. of bits per label  =      8        No. of bits per value  =     64


 #quartets = 3.213D+04 #integrals = 6.608D+05 #direct =  0.0% #cached =100.0%




          %%%%% MacroIteration   1 %%%%%


          Number of sigma calls:       11
                       o<<<<< (aa):             0.00
                       o<<<<< (bb):             0.00
                       o<<<<< (ab):             0.05
                       o<<<<< (total)           0.05
                       o<<<<< (aa) ff           0.00
                       o<<<<< (aa) gop          0.00
                       o<<<<< (aa) dot          0.00
                       o<<<<< (ab) str          0.00
                       o<<<<< (ab) gath         0.00
                       o<<<<< (ab) dotab        0.00
                       o<<<<< (ab) scat         0.00
                       o<<<<< (ab) sync         0.00
                       o<<<<< Density           0.00
                       o<<<<< Density one       0.00
                       o<<<<< Density two       0.00
                       o<<<<< Density ab        0.00
                       o<<<<< Spin adapt        0.11
                       o<<<<< Symm adapt        0.00

                       o<<<<< (ab) max sync:      0.00

           >>>| Valence CI:            -85.049494180713
           >>>| MCSCF energy:          -76.062623238149
           >>>| Gradient norm:          0.426345699D-01
     --- Warning:   96 Hessian diagonals < 0.05 ---
     --- Warning: Precondition failed to converge:Residue: current= 0.4D+00 required= 0.3D-01---
 Increase level shift to     0.24

                              ----- Line search ------

        step       energy         lsg     num-lsg   num-lsh   lsrat    time
      ------- ---------------- --------- --------- --------- ------- --------
       0.0000     -76.06262324 -3.84D-03  0.00D+00  0.00D+00 0.0D+00      1.6

          Number of sigma calls:       13
                       o<<<<< (aa):             0.01
                       o<<<<< (bb):             0.00
                       o<<<<< (ab):             0.07
                       o<<<<< (total)           0.08
                       o<<<<< (aa) ff           0.00
                       o<<<<< (aa) gop          0.00
                       o<<<<< (aa) dot          0.00
                       o<<<<< (ab) str          0.00
                       o<<<<< (ab) gath         0.00
                       o<<<<< (ab) dotab        0.00
                       o<<<<< (ab) scat         0.00
                       o<<<<< (ab) sync         0.00
                       o<<<<< Density           0.01
                       o<<<<< Density one       0.00
                       o<<<<< Density two       0.00
                       o<<<<< Density ab        0.01
                       o<<<<< Spin adapt        0.20
                       o<<<<< Symm adapt        0.00

                       o<<<<< (ab) max sync:      0.00
       1.0000     -76.06698364 -4.85D-03 -4.87D-03 -1.02D-03 1.3D+00      2.1
                     Negative curvature: hessian=-1.02D-03

          Number of sigma calls:       13
                       o<<<<< (aa):             0.01
                       o<<<<< (bb):             0.00
                       o<<<<< (ab):             0.07
                       o<<<<< (total)           0.08
                       o<<<<< (aa) ff           0.00
                       o<<<<< (aa) gop          0.00
                       o<<<<< (aa) dot          0.00
                       o<<<<< (ab) str          0.00
                       o<<<<< (ab) gath         0.00
                       o<<<<< (ab) dotab        0.00
                       o<<<<< (ab) scat         0.00
                       o<<<<< (ab) sync         0.00
                       o<<<<< Density           0.01
                       o<<<<< Density one       0.00
                       o<<<<< Density two       0.00
                       o<<<<< Density ab        0.01
                       o<<<<< Spin adapt        0.18
                       o<<<<< Symm adapt        0.00

                       o<<<<< (ab) max sync:      0.00
       1.5010     -76.06952087 -5.26D-03 -5.27D-03 -8.06D-04 1.4D+00      2.4
                     Negative curvature: hessian=-8.06D-04

          Number of sigma calls:       13
                       o<<<<< (aa):             0.00
                       o<<<<< (bb):             0.00
                       o<<<<< (ab):             0.06
                       o<<<<< (total)           0.07
                       o<<<<< (aa) ff           0.00
                       o<<<<< (aa) gop          0.00
                       o<<<<< (aa) dot          0.00
                       o<<<<< (ab) str          0.00
                       o<<<<< (ab) gath         0.00
                       o<<<<< (ab) dotab        0.00
                       o<<<<< (ab) scat         0.00
                       o<<<<< (ab) sync         0.00
                       o<<<<< Density           0.01
                       o<<<<< Density one       0.00
                       o<<<<< Density two       0.00
                       o<<<<< Density ab        0.01
                       o<<<<< Spin adapt        0.21
                       o<<<<< Symm adapt        0.00

                       o<<<<< (ab) max sync:      0.00
       2.5030     -76.07505791 -5.71D-03 -5.75D-03 -4.47D-04 1.5D+00      2.8
                     Negative curvature: hessian=-4.47D-04

          Number of sigma calls:       14
                       o<<<<< (aa):             0.01
                       o<<<<< (bb):             0.00
                       o<<<<< (ab):             0.10
                       o<<<<< (total)           0.11
                       o<<<<< (aa) ff           0.00
                       o<<<<< (aa) gop          0.00
                       o<<<<< (aa) dot          0.00
                       o<<<<< (ab) str          0.00
                       o<<<<< (ab) gath         0.00
                       o<<<<< (ab) dotab        0.00
                       o<<<<< (ab) scat         0.00
                       o<<<<< (ab) sync         0.00
                       o<<<<< Density           0.01
                       o<<<<< Density one       0.00
                       o<<<<< Density two       0.00
                       o<<<<< Density ab        0.01
                       o<<<<< Spin adapt        0.26
                       o<<<<< Symm adapt        0.00

                       o<<<<< (ab) max sync:      0.00
       4.5070     -76.08612597 -5.01D-03 -5.18D-03  3.47D-04 1.3D+00      3.3
  restricting step size    14.446980651097968     

          Number of sigma calls:       12
                       o<<<<< (aa):             0.00
                       o<<<<< (bb):             0.00
                       o<<<<< (ab):             0.06
                       o<<<<< (total)           0.06
                       o<<<<< (aa) ff           0.00
                       o<<<<< (aa) gop          0.00
                       o<<<<< (aa) dot          0.00
                       o<<<<< (ab) str          0.00
                       o<<<<< (ab) gath         0.00
                       o<<<<< (ab) dotab        0.00
                       o<<<<< (ab) scat         0.00
                       o<<<<< (ab) sync         0.00
                       o<<<<< Density           0.01
                       o<<<<< Density one       0.00
                       o<<<<< Density two       0.00
                       o<<<<< Density ab        0.01
                       o<<<<< Spin adapt        0.23
                       o<<<<< Symm adapt        0.00

                       o<<<<< (ab) max sync:      0.00
       6.7605     -76.09488140 -2.60D-03 -2.68D-03  1.07D-03 6.8D-01      3.8

          Number of sigma calls:       12
                       o<<<<< (aa):             0.00
                       o<<<<< (bb):             0.00
                       o<<<<< (ab):             0.06
                       o<<<<< (total)           0.07
                       o<<<<< (aa) ff           0.00
                       o<<<<< (aa) gop          0.00
                       o<<<<< (aa) dot          0.00
                       o<<<<< (ab) str          0.00
                       o<<<<< (ab) gath         0.00
                       o<<<<< (ab) dotab        0.00
                       o<<<<< (ab) scat         0.00
                       o<<<<< (ab) sync         0.00
                       o<<<<< Density           0.01
                       o<<<<< Density one       0.00
                       o<<<<< Density two       0.00
                       o<<<<< Density ab        0.01
                       o<<<<< Spin adapt        0.36
                       o<<<<< Symm adapt        0.00

                       o<<<<< (ab) max sync:      0.00
       9.1968     -76.09763721  2.85D-04  3.13D-04  1.19D-03 7.4D-02      4.4
     --- Orbitals canonicalized ---



          %%%%% MacroIteration   2 %%%%%


          Number of sigma calls:       11
                       o<<<<< (aa):             0.00
                       o<<<<< (bb):             0.00
                       o<<<<< (ab):             0.06
                       o<<<<< (total)           0.07
                       o<<<<< (aa) ff           0.00
                       o<<<<< (aa) gop          0.00
                       o<<<<< (aa) dot          0.00
                       o<<<<< (ab) str          0.00
                       o<<<<< (ab) gath         0.00
                       o<<<<< (ab) dotab        0.00
                       o<<<<< (ab) scat         0.00
                       o<<<<< (ab) sync         0.00
                       o<<<<< Density           0.01
                       o<<<<< Density one       0.00
                       o<<<<< Density two       0.00
                       o<<<<< Density ab        0.01
                       o<<<<< Spin adapt        0.16
                       o<<<<< Symm adapt        0.00

                       o<<<<< (ab) max sync:      0.00

           >>>| Valence CI:            -85.084508154308
           >>>| MCSCF energy:          -76.097637211744
           >>>| Gradient norm:          0.185854996D+00
     --- Conjugacy reset ---

                              ----- Line search ------

        step       energy         lsg     num-lsg   num-lsh   lsrat    time
      ------- ---------------- --------- --------- --------- ------- --------
       0.0000     -76.09763721 -1.47D-02  0.00D+00  0.00D+00 0.0D+00      4.9

          Number of sigma calls:       13
                       o<<<<< (aa):             0.01
                       o<<<<< (bb):             0.01
                       o<<<<< (ab):             0.07
                       o<<<<< (total)           0.08
                       o<<<<< (aa) ff           0.00
                       o<<<<< (aa) gop          0.00
                       o<<<<< (aa) dot          0.00
                       o<<<<< (ab) str          0.00
                       o<<<<< (ab) gath         0.00
                       o<<<<< (ab) dotab        0.00
                       o<<<<< (ab) scat         0.00
                       o<<<<< (ab) sync         0.00
                       o<<<<< Density           0.01
                       o<<<<< Density one       0.00
                       o<<<<< Density two       0.00
                       o<<<<< Density ab        0.01
                       o<<<<< Spin adapt        0.44
                       o<<<<< Symm adapt        0.00

                       o<<<<< (ab) max sync:      0.00
       1.0000     -76.10827328 -6.03D-03 -6.29D-03  8.69D-03 4.1D-01      5.6

          Number of sigma calls:       12
                       o<<<<< (aa):             0.01
                       o<<<<< (bb):             0.00
                       o<<<<< (ab):             0.05
                       o<<<<< (total)           0.06
                       o<<<<< (aa) ff           0.00
                       o<<<<< (aa) gop          0.00
                       o<<<<< (aa) dot          0.00
                       o<<<<< (ab) str          0.00
                       o<<<<< (ab) gath         0.00
                       o<<<<< (ab) dotab        0.00
                       o<<<<< (ab) scat         0.00
                       o<<<<< (ab) sync         0.00
                       o<<<<< Density           0.01
                       o<<<<< Density one       0.00
                       o<<<<< Density two       0.00
                       o<<<<< Density ab        0.01
                       o<<<<< Spin adapt        0.33
                       o<<<<< Symm adapt        0.00

                       o<<<<< (ab) max sync:      0.00
       1.6934     -76.10991723  1.39D-03  1.34D-03  1.07D-02 9.5D-02      6.2



          %%%%% MacroIteration   3 %%%%%


          Number of sigma calls:        1
                       o<<<<< (aa):             0.00
                       o<<<<< (bb):             0.00
                       o<<<<< (ab):             0.00
                       o<<<<< (total)           0.00
                       o<<<<< (aa) ff           0.00
                       o<<<<< (aa) gop          0.00
                       o<<<<< (aa) dot          0.00
                       o<<<<< (ab) str          0.00
                       o<<<<< (ab) gath         0.00
                       o<<<<< (ab) dotab        0.00
                       o<<<<< (ab) scat         0.00
                       o<<<<< (ab) sync         0.00
                       o<<<<< Density           0.01
                       o<<<<< Density one       0.00
                       o<<<<< Density two       0.00
                       o<<<<< Density ab        0.01
                       o<<<<< Spin adapt        0.00
                       o<<<<< Symm adapt        0.00

                       o<<<<< (ab) max sync:      0.00

           >>>| Valence CI:            -85.096788177353
           >>>| MCSCF energy:          -76.109917234788
           >>>| Gradient norm:          0.119932459D+00

                              ----- Line search ------

        step       energy         lsg     num-lsg   num-lsh   lsrat    time
      ------- ---------------- --------- --------- --------- ------- --------
       0.0000     -76.10991723 -3.27D-03  0.00D+00  0.00D+00 0.0D+00      6.4

          Number of sigma calls:       11
                       o<<<<< (aa):             0.00
                       o<<<<< (bb):             0.00
                       o<<<<< (ab):             0.05
                       o<<<<< (total)           0.06
                       o<<<<< (aa) ff           0.00
                       o<<<<< (aa) gop          0.00
                       o<<<<< (aa) dot          0.00
                       o<<<<< (ab) str          0.00
                       o<<<<< (ab) gath         0.00
                       o<<<<< (ab) dotab        0.00
                       o<<<<< (ab) scat         0.00
                       o<<<<< (ab) sync         0.00
                       o<<<<< Density           0.01
                       o<<<<< Density one       0.01
                       o<<<<< Density two       0.00
                       o<<<<< Density ab        0.00
                       o<<<<< Spin adapt        0.31
                       o<<<<< Symm adapt        0.00

                       o<<<<< (ab) max sync:      0.00
       1.0000     -76.11212233 -1.14D-03 -1.14D-03  2.13D-03 3.5D-01      6.9

          Number of sigma calls:       11
                       o<<<<< (aa):             0.00
                       o<<<<< (bb):             0.00
                       o<<<<< (ab):             0.06
                       o<<<<< (total)           0.06
                       o<<<<< (aa) ff           0.00
                       o<<<<< (aa) gop          0.00
                       o<<<<< (aa) dot          0.00
                       o<<<<< (ab) str          0.00
                       o<<<<< (ab) gath         0.00
                       o<<<<< (ab) dotab        0.00
                       o<<<<< (ab) scat         0.00
                       o<<<<< (ab) sync         0.00
                       o<<<<< Density           0.02
                       o<<<<< Density one       0.01
                       o<<<<< Density two       0.00
                       o<<<<< Density ab        0.01
                       o<<<<< Spin adapt        0.30
                       o<<<<< Symm adapt        0.00

                       o<<<<< (ab) max sync:      0.00
       1.5326     -76.11242329  6.82D-06  6.59D-06  2.15D-03 2.1D-03      7.5



          %%%%% MacroIteration   4 %%%%%


          Number of sigma calls:        1
                       o<<<<< (aa):             0.00
                       o<<<<< (bb):             0.00
                       o<<<<< (ab):             0.00
                       o<<<<< (total)           0.00
                       o<<<<< (aa) ff           0.00
                       o<<<<< (aa) gop          0.00
                       o<<<<< (aa) dot          0.00
                       o<<<<< (ab) str          0.00
                       o<<<<< (ab) gath         0.00
                       o<<<<< (ab) dotab        0.00
                       o<<<<< (ab) scat         0.00
                       o<<<<< (ab) sync         0.00
                       o<<<<< Density           0.01
                       o<<<<< Density one       0.00
                       o<<<<< Density two       0.00
                       o<<<<< Density ab        0.01
                       o<<<<< Spin adapt        0.00
                       o<<<<< Symm adapt        0.00

                       o<<<<< (ab) max sync:      0.00

           >>>| Valence CI:            -85.099294229938
           >>>| MCSCF energy:          -76.112423287375
           >>>| Gradient norm:          0.581566027D-01
     --- Warning:   38 Hessian diagonals < 0.05 ---
     --- Warning: Precondition failed to converge:Residue: current= 0.7D-01 required= 0.3D-01---
 Increase level shift to     0.24

                              ----- Line search ------

        step       energy         lsg     num-lsg   num-lsh   lsrat    time
      ------- ---------------- --------- --------- --------- ------- --------
       0.0000     -76.11242329 -8.26D-04  0.00D+00  0.00D+00 0.0D+00      8.1

          Number of sigma calls:       11
                       o<<<<< (aa):             0.00
                       o<<<<< (bb):             0.00
                       o<<<<< (ab):             0.05
                       o<<<<< (total)           0.06
                       o<<<<< (aa) ff           0.00
                       o<<<<< (aa) gop          0.00
                       o<<<<< (aa) dot          0.00
                       o<<<<< (ab) str          0.00
                       o<<<<< (ab) gath         0.00
                       o<<<<< (ab) dotab        0.00
                       o<<<<< (ab) scat         0.00
                       o<<<<< (ab) sync         0.00
                       o<<<<< Density           0.01
                       o<<<<< Density one       0.01
                       o<<<<< Density two       0.00
                       o<<<<< Density ab        0.00
                       o<<<<< Spin adapt        0.30
                       o<<<<< Symm adapt        0.00

                       o<<<<< (ab) max sync:      0.00
       1.0000     -76.11319726 -7.19D-04 -7.21D-04  1.07D-04 8.7D-01      8.6
  restricting step size    6.7305724562613580     

          Number of sigma calls:       13
                       o<<<<< (aa):             0.01
                       o<<<<< (bb):             0.00
                       o<<<<< (ab):             0.08
                       o<<<<< (total)           0.08
                       o<<<<< (aa) ff           0.00
                       o<<<<< (aa) gop          0.00
                       o<<<<< (aa) dot          0.00
                       o<<<<< (ab) str          0.00
                       o<<<<< (ab) gath         0.00
                       o<<<<< (ab) dotab        0.00
                       o<<<<< (ab) scat         0.00
                       o<<<<< (ab) sync         0.00
                       o<<<<< Density           0.01
                       o<<<<< Density one       0.00
                       o<<<<< Density two       0.00
                       o<<<<< Density ab        0.01
                       o<<<<< Spin adapt        0.43
                       o<<<<< Symm adapt        0.00

                       o<<<<< (ab) max sync:      0.00
       5.0000     -76.11496732 -1.31D-04 -1.49D-04  1.47D-04 1.6D-01      9.2

          Number of sigma calls:       12
                       o<<<<< (aa):             0.00
                       o<<<<< (bb):             0.00
                       o<<<<< (ab):             0.06
                       o<<<<< (total)           0.07
                       o<<<<< (aa) ff           0.00
                       o<<<<< (aa) gop          0.00
                       o<<<<< (aa) dot          0.00
                       o<<<<< (ab) str          0.00
                       o<<<<< (ab) gath         0.00
                       o<<<<< (ab) dotab        0.00
                       o<<<<< (ab) scat         0.00
                       o<<<<< (ab) sync         0.00
                       o<<<<< Density           0.01
                       o<<<<< Density one       0.00
                       o<<<<< Density two       0.00
                       o<<<<< Density ab        0.01
                       o<<<<< Spin adapt        0.33
                       o<<<<< Symm adapt        0.00

                       o<<<<< (ab) max sync:      0.00
       5.8912     -76.11501609  2.23D-05  2.19D-05  1.72D-04 2.7D-02      9.7



          %%%%% MacroIteration   5 %%%%%


          Number of sigma calls:        1
                       o<<<<< (aa):             0.00
                       o<<<<< (bb):             0.00
                       o<<<<< (ab):             0.00
                       o<<<<< (total)           0.00
                       o<<<<< (aa) ff           0.00
                       o<<<<< (aa) gop          0.00
                       o<<<<< (aa) dot          0.00
                       o<<<<< (ab) str          0.00
                       o<<<<< (ab) gath         0.00
                       o<<<<< (ab) dotab        0.00
                       o<<<<< (ab) scat         0.00
                       o<<<<< (ab) sync         0.00
                       o<<<<< Density           0.01
                       o<<<<< Density one       0.00
                       o<<<<< Density two       0.00
                       o<<<<< Density ab        0.01
                       o<<<<< Spin adapt        0.00
                       o<<<<< Symm adapt        0.00

                       o<<<<< (ab) max sync:      0.00

           >>>| Valence CI:            -85.101887029357
           >>>| MCSCF energy:          -76.115016086793
           >>>| Gradient norm:          0.727824078D-01
     --- Warning:   20 Hessian diagonals < 0.05 ---
     --- Warning: Precondition failed to converge:Residue: current= 0.3D-01 required= 0.3D-01---

                              ----- Line search ------

        step       energy         lsg     num-lsg   num-lsh   lsrat    time
      ------- ---------------- --------- --------- --------- ------- --------
       0.0000     -76.11501609 -3.16D-03  0.00D+00  0.00D+00 0.0D+00     10.2

          Number of sigma calls:       15
                       o<<<<< (aa):             0.00
                       o<<<<< (bb):             0.00
                       o<<<<< (ab):             0.09
                       o<<<<< (total)           0.10
                       o<<<<< (aa) ff           0.00
                       o<<<<< (aa) gop          0.00
                       o<<<<< (aa) dot          0.00
                       o<<<<< (ab) str          0.00
                       o<<<<< (ab) gath         0.00
                       o<<<<< (ab) dotab        0.00
                       o<<<<< (ab) scat         0.00
                       o<<<<< (ab) sync         0.00
                       o<<<<< Density           0.01
                       o<<<<< Density one       0.01
                       o<<<<< Density two       0.00
                       o<<<<< Density ab        0.00
                       o<<<<< Spin adapt        0.44
                       o<<<<< Symm adapt        0.00

                       o<<<<< (ab) max sync:      0.00
       1.0000     -76.11722653 -1.21D-03 -1.23D-03  1.95D-03 3.8D-01     10.9

          Number of sigma calls:       15
                       o<<<<< (aa):             0.00
                       o<<<<< (bb):             0.00
                       o<<<<< (ab):             0.08
                       o<<<<< (total)           0.08
                       o<<<<< (aa) ff           0.00
                       o<<<<< (aa) gop          0.00
                       o<<<<< (aa) dot          0.00
                       o<<<<< (ab) str          0.00
                       o<<<<< (ab) gath         0.00
                       o<<<<< (ab) dotab        0.00
                       o<<<<< (ab) scat         0.00
                       o<<<<< (ab) sync         0.00
                       o<<<<< Density           0.00
                       o<<<<< Density one       0.00
                       o<<<<< Density two       0.00
                       o<<<<< Density ab        0.00
                       o<<<<< Spin adapt        0.51
                       o<<<<< Symm adapt        0.00

                       o<<<<< (ab) max sync:      0.00
       1.6174     -76.11758542  3.30D-05  3.86D-05  2.01D-03 1.0D-02     11.6



          %%%%% MacroIteration   6 %%%%%


          Number of sigma calls:        1
                       o<<<<< (aa):             0.00
                       o<<<<< (bb):             0.00
                       o<<<<< (ab):             0.01
                       o<<<<< (total)           0.01
                       o<<<<< (aa) ff           0.00
                       o<<<<< (aa) gop          0.00
                       o<<<<< (aa) dot          0.00
                       o<<<<< (ab) str          0.00
                       o<<<<< (ab) gath         0.00
                       o<<<<< (ab) dotab        0.00
                       o<<<<< (ab) scat         0.00
                       o<<<<< (ab) sync         0.00
                       o<<<<< Density           0.01
                       o<<<<< Density one       0.00
                       o<<<<< Density two       0.00
                       o<<<<< Density ab        0.01
                       o<<<<< Spin adapt        0.00
                       o<<<<< Symm adapt        0.00

                       o<<<<< (ab) max sync:      0.00

           >>>| Valence CI:            -85.104456357721
           >>>| MCSCF energy:          -76.117585415158
           >>>| Gradient norm:          0.471981446D-01
     --- Warning:   18 Hessian diagonals < 0.05 ---

                              ----- Line search ------

        step       energy         lsg     num-lsg   num-lsh   lsrat    time
      ------- ---------------- --------- --------- --------- ------- --------
       0.0000     -76.11758542 -6.52D-04  0.00D+00  0.00D+00 0.0D+00     11.8

          Number of sigma calls:       14
                       o<<<<< (aa):             0.00
                       o<<<<< (bb):             0.00
                       o<<<<< (ab):             0.07
                       o<<<<< (total)           0.08
                       o<<<<< (aa) ff           0.00
                       o<<<<< (aa) gop          0.00
                       o<<<<< (aa) dot          0.00
                       o<<<<< (ab) str          0.00
                       o<<<<< (ab) gath         0.00
                       o<<<<< (ab) dotab        0.00
                       o<<<<< (ab) scat         0.00
                       o<<<<< (ab) sync         0.00
                       o<<<<< Density           0.01
                       o<<<<< Density one       0.01
                       o<<<<< Density two       0.00
                       o<<<<< Density ab        0.00
                       o<<<<< Spin adapt        0.49
                       o<<<<< Symm adapt        0.00

                       o<<<<< (ab) max sync:      0.00
       1.0000     -76.11799795 -1.73D-04 -1.73D-04  4.79D-04 2.7D-01     12.5

          Number of sigma calls:       14
                       o<<<<< (aa):             0.00
                       o<<<<< (bb):             0.01
                       o<<<<< (ab):             0.08
                       o<<<<< (total)           0.09
                       o<<<<< (aa) ff           0.00
                       o<<<<< (aa) gop          0.00
                       o<<<<< (aa) dot          0.00
                       o<<<<< (ab) str          0.00
                       o<<<<< (ab) gath         0.00
                       o<<<<< (ab) dotab        0.00
                       o<<<<< (ab) scat         0.00
                       o<<<<< (ab) sync         0.00
                       o<<<<< Density           0.02
                       o<<<<< Density one       0.00
                       o<<<<< Density two       0.00
                       o<<<<< Density ab        0.01
                       o<<<<< Spin adapt        0.46
                       o<<<<< Symm adapt        0.00

                       o<<<<< (ab) max sync:      0.00
       1.3616     -76.11802935 -5.53D-07 -5.11D-07  4.77D-04 8.5D-04     13.2



          %%%%% MacroIteration   7 %%%%%


          Number of sigma calls:        1
                       o<<<<< (aa):             0.00
                       o<<<<< (bb):             0.00
                       o<<<<< (ab):             0.00
                       o<<<<< (total)           0.00
                       o<<<<< (aa) ff           0.00
                       o<<<<< (aa) gop          0.00
                       o<<<<< (aa) dot          0.00
                       o<<<<< (ab) str          0.00
                       o<<<<< (ab) gath         0.00
                       o<<<<< (ab) dotab        0.00
                       o<<<<< (ab) scat         0.00
                       o<<<<< (ab) sync         0.00
                       o<<<<< Density           0.00
                       o<<<<< Density one       0.00
                       o<<<<< Density two       0.00
                       o<<<<< Density ab        0.00
                       o<<<<< Spin adapt        0.00
                       o<<<<< Symm adapt        0.00

                       o<<<<< (ab) max sync:      0.00

           >>>| Valence CI:            -85.104900295843
           >>>| MCSCF energy:          -76.118029353280
           >>>| Gradient norm:          0.153725876D-01
     --- Warning:   19 Hessian diagonals < 0.05 ---

                              ----- Line search ------

        step       energy         lsg     num-lsg   num-lsh   lsrat    time
      ------- ---------------- --------- --------- --------- ------- --------
       0.0000     -76.11802935 -4.96D-05  0.00D+00  0.00D+00 0.0D+00     13.4

          Number of sigma calls:       13
                       o<<<<< (aa):             0.00
                       o<<<<< (bb):             0.00
                       o<<<<< (ab):             0.06
                       o<<<<< (total)           0.07
                       o<<<<< (aa) ff           0.00
                       o<<<<< (aa) gop          0.00
                       o<<<<< (aa) dot          0.00
                       o<<<<< (ab) str          0.00
                       o<<<<< (ab) gath         0.00
                       o<<<<< (ab) dotab        0.00
                       o<<<<< (ab) scat         0.00
                       o<<<<< (ab) sync         0.00
                       o<<<<< Density           0.01
                       o<<<<< Density one       0.00
                       o<<<<< Density two       0.00
                       o<<<<< Density ab        0.01
                       o<<<<< Spin adapt        0.43
                       o<<<<< Symm adapt        0.00

                       o<<<<< (ab) max sync:      0.00
       1.0000     -76.11806343 -1.85D-05 -1.85D-05  3.11D-05 3.7D-01     14.1

          Number of sigma calls:       13
                       o<<<<< (aa):             0.00
                       o<<<<< (bb):             0.00
                       o<<<<< (ab):             0.06
                       o<<<<< (total)           0.07
                       o<<<<< (aa) ff           0.00
                       o<<<<< (aa) gop          0.00
                       o<<<<< (aa) dot          0.00
                       o<<<<< (ab) str          0.00
                       o<<<<< (ab) gath         0.00
                       o<<<<< (ab) dotab        0.00
                       o<<<<< (ab) scat         0.00
                       o<<<<< (ab) sync         0.00
                       o<<<<< Density           0.00
                       o<<<<< Density one       0.00
                       o<<<<< Density two       0.00
                       o<<<<< Density ab        0.00
                       o<<<<< Spin adapt        0.41
                       o<<<<< Symm adapt        0.00

                       o<<<<< (ab) max sync:      0.00
       1.5970     -76.11806897 -4.16D-08 -3.88D-08  3.10D-05 8.4D-04     14.7



          %%%%% MacroIteration   8 %%%%%


          Number of sigma calls:        1
                       o<<<<< (aa):             0.00
                       o<<<<< (bb):             0.00
                       o<<<<< (ab):             0.01
                       o<<<<< (total)           0.01
                       o<<<<< (aa) ff           0.00
                       o<<<<< (aa) gop          0.00
                       o<<<<< (aa) dot          0.00
                       o<<<<< (ab) str          0.00
                       o<<<<< (ab) gath         0.00
                       o<<<<< (ab) dotab        0.00
                       o<<<<< (ab) scat         0.00
                       o<<<<< (ab) sync         0.00
                       o<<<<< Density           0.01
                       o<<<<< Density one       0.00
                       o<<<<< Density two       0.00
                       o<<<<< Density ab        0.01
                       o<<<<< Spin adapt        0.00
                       o<<<<< Symm adapt        0.00

                       o<<<<< (ab) max sync:      0.00

           >>>| Valence CI:            -85.104939914887
           >>>| MCSCF energy:          -76.118068972324
           >>>| Gradient norm:          0.473569028D-02
     --- Warning:   42 Hessian diagonals < 0.05 ---
     --- Warning: Precondition failed to converge:Residue: current= 0.3D-01 required= 0.3D-01---

                              ----- Line search ------

        step       energy         lsg     num-lsg   num-lsh   lsrat    time
      ------- ---------------- --------- --------- --------- ------- --------
       0.0000     -76.11806897 -1.86D-05  0.00D+00  0.00D+00 0.0D+00     15.2

          Number of sigma calls:       14
                       o<<<<< (aa):             0.00
                       o<<<<< (bb):             0.00
                       o<<<<< (ab):             0.08
                       o<<<<< (total)           0.09
                       o<<<<< (aa) ff           0.00
                       o<<<<< (aa) gop          0.00
                       o<<<<< (aa) dot          0.00
                       o<<<<< (ab) str          0.00
                       o<<<<< (ab) gath         0.00
                       o<<<<< (ab) dotab        0.00
                       o<<<<< (ab) scat         0.00
                       o<<<<< (ab) sync         0.00
                       o<<<<< Density           0.00
                       o<<<<< Density one       0.00
                       o<<<<< Density two       0.00
                       o<<<<< Density ab        0.00
                       o<<<<< Spin adapt        0.52
                       o<<<<< Symm adapt        0.00

                       o<<<<< (ab) max sync:      0.00
       1.0000     -76.11808507 -1.36D-05 -1.36D-05  5.00D-06 7.3D-01     16.0

          Number of sigma calls:       15
                       o<<<<< (aa):             0.01
                       o<<<<< (bb):             0.00
                       o<<<<< (ab):             0.07
                       o<<<<< (total)           0.08
                       o<<<<< (aa) ff           0.00
                       o<<<<< (aa) gop          0.00
                       o<<<<< (aa) dot          0.00
                       o<<<<< (ab) str          0.00
                       o<<<<< (ab) gath         0.00
                       o<<<<< (ab) dotab        0.00
                       o<<<<< (ab) scat         0.00
                       o<<<<< (ab) sync         0.00
                       o<<<<< Density           0.02
                       o<<<<< Density one       0.00
                       o<<<<< Density two       0.00
                       o<<<<< Density ab        0.01
                       o<<<<< Spin adapt        0.49
                       o<<<<< Symm adapt        0.00

                       o<<<<< (ab) max sync:      0.00
       3.7235     -76.11810411 -4.84D-07 -4.29D-07  4.82D-06 2.6D-02     16.7



          %%%%% MacroIteration   9 %%%%%


          Number of sigma calls:        1
                       o<<<<< (aa):             0.00
                       o<<<<< (bb):             0.00
                       o<<<<< (ab):             0.01
                       o<<<<< (total)           0.01
                       o<<<<< (aa) ff           0.00
                       o<<<<< (aa) gop          0.00
                       o<<<<< (aa) dot          0.00
                       o<<<<< (ab) str          0.00
                       o<<<<< (ab) gath         0.00
                       o<<<<< (ab) dotab        0.00
                       o<<<<< (ab) scat         0.00
                       o<<<<< (ab) sync         0.00
                       o<<<<< Density           0.01
                       o<<<<< Density one       0.00
                       o<<<<< Density two       0.00
                       o<<<<< Density ab        0.00
                       o<<<<< Spin adapt        0.00
                       o<<<<< Symm adapt        0.00

                       o<<<<< (ab) max sync:      0.00

           >>>| Valence CI:            -85.104975053693
           >>>| MCSCF energy:          -76.118104111130
           >>>| Gradient norm:          0.778684907D-02
     --- Warning:   43 Hessian diagonals < 0.05 ---
     --- Warning: Precondition failed to converge:Residue: current= 0.1D+00 required= 0.3D-01---
 Increase level shift to     0.20

                              ----- Line search ------

        step       energy         lsg     num-lsg   num-lsh   lsrat    time
      ------- ---------------- --------- --------- --------- ------- --------
       0.0000     -76.11810411 -2.84D-05  0.00D+00  0.00D+00 0.0D+00     17.3

          Number of sigma calls:       15
                       o<<<<< (aa):             0.00
                       o<<<<< (bb):             0.00
                       o<<<<< (ab):             0.08
                       o<<<<< (total)           0.08
                       o<<<<< (aa) ff           0.00
                       o<<<<< (aa) gop          0.00
                       o<<<<< (aa) dot          0.00
                       o<<<<< (ab) str          0.00
                       o<<<<< (ab) gath         0.00
                       o<<<<< (ab) dotab        0.00
                       o<<<<< (ab) scat         0.00
                       o<<<<< (ab) sync         0.00
                       o<<<<< Density           0.01
                       o<<<<< Density one       0.00
                       o<<<<< Density two       0.00
                       o<<<<< Density ab        0.01
                       o<<<<< Spin adapt        0.52
                       o<<<<< Symm adapt        0.00

                       o<<<<< (ab) max sync:      0.00
       1.0000     -76.11813800 -3.94D-05 -3.94D-05 -1.10D-05 1.4D+00     18.0
                     Negative curvature: hessian=-1.10D-05

          Number of sigma calls:       14
                       o<<<<< (aa):             0.00
                       o<<<<< (bb):             0.01
                       o<<<<< (ab):             0.06
                       o<<<<< (total)           0.07
                       o<<<<< (aa) ff           0.00
                       o<<<<< (aa) gop          0.00
                       o<<<<< (aa) dot          0.00
                       o<<<<< (ab) str          0.00
                       o<<<<< (ab) gath         0.00
                       o<<<<< (ab) dotab        0.00
                       o<<<<< (ab) scat         0.00
                       o<<<<< (ab) sync         0.00
                       o<<<<< Density           0.01
                       o<<<<< Density one       0.00
                       o<<<<< Density two       0.00
                       o<<<<< Density ab        0.01
                       o<<<<< Spin adapt        0.52
                       o<<<<< Symm adapt        0.00

                       o<<<<< (ab) max sync:      0.00
       1.5010     -76.11815915 -4.50D-05 -4.50D-05 -1.11D-05 1.6D+00     18.7
                     Negative curvature: hessian=-1.11D-05

          Number of sigma calls:       15
                       o<<<<< (aa):             0.00
                       o<<<<< (bb):             0.01
                       o<<<<< (ab):             0.08
                       o<<<<< (total)           0.09
                       o<<<<< (aa) ff           0.00
                       o<<<<< (aa) gop          0.00
                       o<<<<< (aa) dot          0.00
                       o<<<<< (ab) str          0.00
                       o<<<<< (ab) gath         0.00
                       o<<<<< (ab) dotab        0.00
                       o<<<<< (ab) scat         0.00
                       o<<<<< (ab) sync         0.00
                       o<<<<< Density           0.01
                       o<<<<< Density one       0.01
                       o<<<<< Density two       0.00
                       o<<<<< Density ab        0.00
                       o<<<<< Spin adapt        0.53
                       o<<<<< Symm adapt        0.00

                       o<<<<< (ab) max sync:      0.00
       2.5030     -76.11820982 -5.61D-05 -5.61D-05 -1.11D-05 2.0D+00     19.5
                     Negative curvature: hessian=-1.11D-05

          Number of sigma calls:       16
                       o<<<<< (aa):             0.01
                       o<<<<< (bb):             0.01
                       o<<<<< (ab):             0.10
                       o<<<<< (total)           0.11
                       o<<<<< (aa) ff           0.00
                       o<<<<< (aa) gop          0.00
                       o<<<<< (aa) dot          0.00
                       o<<<<< (ab) str          0.00
                       o<<<<< (ab) gath         0.00
                       o<<<<< (ab) dotab        0.00
                       o<<<<< (ab) scat         0.00
                       o<<<<< (ab) sync         0.00
                       o<<<<< Density           0.00
                       o<<<<< Density one       0.00
                       o<<<<< Density two       0.00
                       o<<<<< Density ab        0.00
                       o<<<<< Spin adapt        0.70
                       o<<<<< Symm adapt        0.00

                       o<<<<< (ab) max sync:      0.00
       4.5070     -76.11834331 -7.66D-05 -7.69D-05 -1.03D-05 2.7D+00     20.4
                     Negative curvature: hessian=-1.03D-05

          Number of sigma calls:       17
                       o<<<<< (aa):             0.00
                       o<<<<< (bb):             0.01
                       o<<<<< (ab):             0.09
                       o<<<<< (total)           0.11
                       o<<<<< (aa) ff           0.00
                       o<<<<< (aa) gop          0.00
                       o<<<<< (aa) dot          0.00
                       o<<<<< (ab) str          0.00
                       o<<<<< (ab) gath         0.00
                       o<<<<< (ab) dotab        0.00
                       o<<<<< (ab) scat         0.00
                       o<<<<< (ab) sync         0.00
                       o<<<<< Density           0.01
                       o<<<<< Density one       0.00
                       o<<<<< Density two       0.00
                       o<<<<< Density ab        0.01
                       o<<<<< Spin adapt        0.67
                       o<<<<< Symm adapt        0.00

                       o<<<<< (ab) max sync:      0.00
       8.5150     -76.11871055 -1.02D-04 -1.04D-04 -6.35D-06 3.6D+00     21.4
                     Negative curvature: hessian=-6.35D-06

          Number of sigma calls:       18
                       o<<<<< (aa):             0.01
                       o<<<<< (bb):             0.01
                       o<<<<< (ab):             0.09
                       o<<<<< (total)           0.10
                       o<<<<< (aa) ff           0.00
                       o<<<<< (aa) gop          0.00
                       o<<<<< (aa) dot          0.00
                       o<<<<< (ab) str          0.00
                       o<<<<< (ab) gath         0.00
                       o<<<<< (ab) dotab        0.00
                       o<<<<< (ab) scat         0.00
                       o<<<<< (ab) sync         0.00
                       o<<<<< Density           0.00
                       o<<<<< Density one       0.00
                       o<<<<< Density two       0.00
                       o<<<<< Density ab        0.00
                       o<<<<< Spin adapt        0.61
                       o<<<<< Symm adapt        0.00

                       o<<<<< (ab) max sync:      0.00
      16.5310     -76.11940127 -4.27D-05 -5.65D-05  7.40D-06 1.5D+00     22.2
  restricting step size    5.7745554663837311     

          Number of sigma calls:       17
                       o<<<<< (aa):             0.00
                       o<<<<< (bb):             0.00
                       o<<<<< (ab):             0.13
                       o<<<<< (total)           0.14
                       o<<<<< (aa) ff           0.00
                       o<<<<< (aa) gop          0.00
                       o<<<<< (aa) dot          0.00
                       o<<<<< (ab) str          0.00
                       o<<<<< (ab) gath         0.00
                       o<<<<< (ab) dotab        0.00
                       o<<<<< (ab) scat         0.00
                       o<<<<< (ab) sync         0.00
                       o<<<<< Density           0.01
                       o<<<<< Density one       0.00
                       o<<<<< Density two       0.00
                       o<<<<< Density ab        0.01
                       o<<<<< Spin adapt        0.73
                       o<<<<< Symm adapt        0.00

                       o<<<<< (ab) max sync:      0.00
      20.5310     -76.11940886  4.39D-05  4.14D-05  2.17D-05 1.5D+00     23.3

          Number of sigma calls:       16
                       o<<<<< (aa):             0.00
                       o<<<<< (bb):             0.00
                       o<<<<< (ab):             0.08
                       o<<<<< (total)           0.08
                       o<<<<< (aa) ff           0.00
                       o<<<<< (aa) gop          0.00
                       o<<<<< (aa) dot          0.00
                       o<<<<< (ab) str          0.00
                       o<<<<< (ab) gath         0.00
                       o<<<<< (ab) dotab        0.00
                       o<<<<< (ab) scat         0.00
                       o<<<<< (ab) sync         0.00
                       o<<<<< Density           0.02
                       o<<<<< Density one       0.01
                       o<<<<< Density two       0.00
                       o<<<<< Density ab        0.01
                       o<<<<< Spin adapt        0.66
                       o<<<<< Symm adapt        0.00

                       o<<<<< (ab) max sync:      0.00
      18.5034     -76.11944849 -3.75D-06 -4.30D-06  2.35D-05 1.3D-01     24.2

          Number of sigma calls:       13
                       o<<<<< (aa):             0.00
                       o<<<<< (bb):             0.00
                       o<<<<< (ab):             0.08
                       o<<<<< (total)           0.08
                       o<<<<< (aa) ff           0.00
                       o<<<<< (aa) gop          0.00
                       o<<<<< (aa) dot          0.00
                       o<<<<< (ab) str          0.00
                       o<<<<< (ab) gath         0.00
                       o<<<<< (ab) dotab        0.00
                       o<<<<< (ab) scat         0.00
                       o<<<<< (ab) sync         0.00
                       o<<<<< Density           0.02
                       o<<<<< Density one       0.00
                       o<<<<< Density two       0.00
                       o<<<<< Density ab        0.01
                       o<<<<< Spin adapt        0.45
                       o<<<<< Symm adapt        0.00

                       o<<<<< (ab) max sync:      0.00
      18.6630     -76.11944881 -2.51D-07 -2.55D-07  2.19D-05 8.9D-03     24.9



          %%%%% MacroIteration  10 %%%%%


          Number of sigma calls:        1
                       o<<<<< (aa):             0.00
                       o<<<<< (bb):             0.00
                       o<<<<< (ab):             0.00
                       o<<<<< (total)           0.00
                       o<<<<< (aa) ff           0.00
                       o<<<<< (aa) gop          0.00
                       o<<<<< (aa) dot          0.00
                       o<<<<< (ab) str          0.00
                       o<<<<< (ab) gath         0.00
                       o<<<<< (ab) dotab        0.00
                       o<<<<< (ab) scat         0.00
                       o<<<<< (ab) sync         0.00
                       o<<<<< Density           0.01
                       o<<<<< Density one       0.01
                       o<<<<< Density two       0.00
                       o<<<<< Density ab        0.00
                       o<<<<< Spin adapt        0.00
                       o<<<<< Symm adapt        0.00

                       o<<<<< (ab) max sync:      0.00

           >>>| Valence CI:            -85.106319754952
           >>>| MCSCF energy:          -76.119448812388
           >>>| Gradient norm:          0.575183771D-01
     --- Warning:   18 Hessian diagonals < 0.05 ---
     --- Warning: Precondition failed to converge:Residue: current= 0.3D-01 required= 0.3D-01---

                              ----- Line search ------

        step       energy         lsg     num-lsg   num-lsh   lsrat    time
      ------- ---------------- --------- --------- --------- ------- --------
       0.0000     -76.11944881 -1.15D-02  0.00D+00  0.00D+00 0.0D+00     25.4

          Number of sigma calls:       18
                       o<<<<< (aa):             0.00
                       o<<<<< (bb):             0.00
                       o<<<<< (ab):             0.09
                       o<<<<< (total)           0.09
                       o<<<<< (aa) ff           0.00
                       o<<<<< (aa) gop          0.00
                       o<<<<< (aa) dot          0.00
                       o<<<<< (ab) str          0.00
                       o<<<<< (ab) gath         0.00
                       o<<<<< (ab) dotab        0.00
                       o<<<<< (ab) scat         0.00
                       o<<<<< (ab) sync         0.00
                       o<<<<< Density           0.01
                       o<<<<< Density one       0.00
                       o<<<<< Density two       0.00
                       o<<<<< Density ab        0.01
                       o<<<<< Spin adapt        0.60
                       o<<<<< Symm adapt        0.00

                       o<<<<< (ab) max sync:      0.00
       1.0000     -76.00402477  2.48D-01  2.45D-01  2.59D-01 2.2D+01     26.2
                    Energy increase :             0.11542404 backtrack

          Number of sigma calls:       18
                       o<<<<< (aa):             0.00
                       o<<<<< (bb):             0.01
                       o<<<<< (ab):             0.08
                       o<<<<< (total)           0.09
                       o<<<<< (aa) ff           0.00
                       o<<<<< (aa) gop          0.00
                       o<<<<< (aa) dot          0.00
                       o<<<<< (ab) str          0.00
                       o<<<<< (ab) gath         0.00
                       o<<<<< (ab) dotab        0.00
                       o<<<<< (ab) scat         0.00
                       o<<<<< (ab) sync         0.00
                       o<<<<< Density           0.01
                       o<<<<< Density one       0.01
                       o<<<<< Density two       0.00
                       o<<<<< Density ab        0.00
                       o<<<<< Spin adapt        0.64
                       o<<<<< Symm adapt        0.00

                       o<<<<< (ab) max sync:      0.00
       0.6667     -76.04521218  1.42D-01  7.04D-02  3.19D-01 1.2D+01     27.1
                    Energy increase :             0.07423663 backtrack

          Number of sigma calls:       16
                       o<<<<< (aa):             0.00
                       o<<<<< (bb):             0.01
                       o<<<<< (ab):             0.07
                       o<<<<< (total)           0.08
                       o<<<<< (aa) ff           0.00
                       o<<<<< (aa) gop          0.00
                       o<<<<< (aa) dot          0.00
                       o<<<<< (ab) str          0.00
                       o<<<<< (ab) gath         0.00
                       o<<<<< (ab) dotab        0.00
                       o<<<<< (ab) scat         0.00
                       o<<<<< (ab) sync         0.00
                       o<<<<< Density           0.01
                       o<<<<< Density one       0.00
                       o<<<<< Density two       0.00
                       o<<<<< Density ab        0.01
                       o<<<<< Spin adapt        0.49
                       o<<<<< Symm adapt        0.00

                       o<<<<< (ab) max sync:      0.00
       0.4444     -76.07135636  4.78D-02  7.07D-02  4.22D-01 4.2D+00     27.8
                    Energy increase :             0.04809245 backtrack

          Number of sigma calls:       18
                       o<<<<< (aa):             0.00
                       o<<<<< (bb):             0.00
                       o<<<<< (ab):             0.09
                       o<<<<< (total)           0.10
                       o<<<<< (aa) ff           0.00
                       o<<<<< (aa) gop          0.00
                       o<<<<< (aa) dot          0.00
                       o<<<<< (ab) str          0.00
                       o<<<<< (ab) gath         0.00
                       o<<<<< (ab) dotab        0.00
                       o<<<<< (ab) scat         0.00
                       o<<<<< (ab) sync         0.00
                       o<<<<< Density           0.00
                       o<<<<< Density one       0.00
                       o<<<<< Density two       0.00
                       o<<<<< Density ab        0.00
                       o<<<<< Spin adapt        0.52
                       o<<<<< Symm adapt        0.00

                       o<<<<< (ab) max sync:      0.00
       0.2963     -76.09281939  1.62D-02  1.29D-01  2.13D-01 1.4D+00     28.6
                    Energy increase :             0.02662942 backtrack

          Number of sigma calls:       18
                       o<<<<< (aa):             0.01
                       o<<<<< (bb):             0.00
                       o<<<<< (ab):             0.09
                       o<<<<< (total)           0.10
                       o<<<<< (aa) ff           0.00
                       o<<<<< (aa) gop          0.00
                       o<<<<< (aa) dot          0.00
                       o<<<<< (ab) str          0.00
                       o<<<<< (ab) gath         0.00
                       o<<<<< (ab) dotab        0.00
                       o<<<<< (ab) scat         0.00
                       o<<<<< (ab) sync         0.00
                       o<<<<< Density           0.01
                       o<<<<< Density one       0.00
                       o<<<<< Density two       0.00
                       o<<<<< Density ab        0.01
                       o<<<<< Spin adapt        0.68
                       o<<<<< Symm adapt        0.00

                       o<<<<< (ab) max sync:      0.00
       0.1975     -76.10642519  2.07D-01  2.33D-01 -1.93D+00 1.8D+01     29.5
                    Energy increase :             0.01302362 backtrack

          Number of sigma calls:       18
                       o<<<<< (aa):             0.00
                       o<<<<< (bb):             0.00
                       o<<<<< (ab):             0.08
                       o<<<<< (total)           0.09
                       o<<<<< (aa) ff           0.00
                       o<<<<< (aa) gop          0.00
                       o<<<<< (aa) dot          0.00
                       o<<<<< (ab) str          0.00
                       o<<<<< (ab) gath         0.00
                       o<<<<< (ab) dotab        0.00
                       o<<<<< (ab) scat         0.00
                       o<<<<< (ab) sync         0.00
                       o<<<<< Density           0.00
                       o<<<<< Density one       0.00
                       o<<<<< Density two       0.00
                       o<<<<< Density ab        0.00
                       o<<<<< Spin adapt        0.57
                       o<<<<< Symm adapt        0.00

                       o<<<<< (ab) max sync:      0.00
       0.1317     -76.11080000 -4.68D-03 -3.92D-02  3.21D+00 4.1D-01     30.3
                    Energy increase :             0.00864881 backtrack

          Number of sigma calls:       15
                       o<<<<< (aa):             0.00
                       o<<<<< (bb):             0.00
                       o<<<<< (ab):             0.09
                       o<<<<< (total)           0.10
                       o<<<<< (aa) ff           0.00
                       o<<<<< (aa) gop          0.00
                       o<<<<< (aa) dot          0.00
                       o<<<<< (ab) str          0.00
                       o<<<<< (ab) gath         0.00
                       o<<<<< (ab) dotab        0.00
                       o<<<<< (ab) scat         0.00
                       o<<<<< (ab) sync         0.00
                       o<<<<< Density           0.01
                       o<<<<< Density one       0.00
                       o<<<<< Density two       0.00
                       o<<<<< Density ab        0.01
                       o<<<<< Spin adapt        0.46
                       o<<<<< Symm adapt        0.00

                       o<<<<< (ab) max sync:      0.00
       0.0878     -76.11218422  7.26D-02  7.01D-02 -1.76D+00 6.3D+00     31.0
                    Energy increase :             0.00726460 backtrack

          Number of sigma calls:       15
                       o<<<<< (aa):             0.01
                       o<<<<< (bb):             0.01
                       o<<<<< (ab):             0.07
                       o<<<<< (total)           0.08
                       o<<<<< (aa) ff           0.00
                       o<<<<< (aa) gop          0.00
                       o<<<<< (aa) dot          0.00
                       o<<<<< (ab) str          0.00
                       o<<<<< (ab) gath         0.00
                       o<<<<< (ab) dotab        0.00
                       o<<<<< (ab) scat         0.00
                       o<<<<< (ab) sync         0.00
                       o<<<<< Density           0.01
                       o<<<<< Density one       0.00
                       o<<<<< Density two       0.00
                       o<<<<< Density ab        0.01
                       o<<<<< Spin adapt        0.45
                       o<<<<< Symm adapt        0.00

                       o<<<<< (ab) max sync:      0.00
       0.0585     -76.11504810  1.19D-01  1.21D-01 -1.59D+00 1.0D+01     31.7
                    Energy increase :             0.00440072 backtrack

          Number of sigma calls:       15
                       o<<<<< (aa):             0.00
                       o<<<<< (bb):             0.01
                       o<<<<< (ab):             0.06
                       o<<<<< (total)           0.08
                       o<<<<< (aa) ff           0.00
                       o<<<<< (aa) gop          0.00
                       o<<<<< (aa) dot          0.00
                       o<<<<< (ab) str          0.00
                       o<<<<< (ab) gath         0.00
                       o<<<<< (ab) dotab        0.00
                       o<<<<< (ab) scat         0.00
                       o<<<<< (ab) sync         0.00
                       o<<<<< Density           0.02
                       o<<<<< Density one       0.01
                       o<<<<< Density two       0.00
                       o<<<<< Density ab        0.01
                       o<<<<< Spin adapt        0.48
                       o<<<<< Symm adapt        0.00

                       o<<<<< (ab) max sync:      0.00
       0.0390     -76.11738338  1.11D-01  1.16D-01  3.94D-01 9.7D+00     32.4
                    Energy increase :             0.00206543 backtrack

          Number of sigma calls:       15
                       o<<<<< (aa):             0.01
                       o<<<<< (bb):             0.00
                       o<<<<< (ab):             0.08
                       o<<<<< (total)           0.08
                       o<<<<< (aa) ff           0.00
                       o<<<<< (aa) gop          0.00
                       o<<<<< (aa) dot          0.00
                       o<<<<< (ab) str          0.00
                       o<<<<< (ab) gath         0.00
                       o<<<<< (ab) dotab        0.00
                       o<<<<< (ab) scat         0.00
                       o<<<<< (ab) sync         0.00
                       o<<<<< Density           0.01
                       o<<<<< Density one       0.00
                       o<<<<< Density two       0.00
                       o<<<<< Density ab        0.01
                       o<<<<< Spin adapt        0.54
                       o<<<<< Symm adapt        0.00

                       o<<<<< (ab) max sync:      0.00
       0.0260     -76.11863135  7.72D-02  7.88D-02  2.63D+00 6.7D+00     33.2
                    Energy increase :             0.00081746 backtrack

          Number of sigma calls:       15
                       o<<<<< (aa):             0.00
                       o<<<<< (bb):             0.00
                       o<<<<< (ab):             0.08
                       o<<<<< (total)           0.08
                       o<<<<< (aa) ff           0.00
                       o<<<<< (aa) gop          0.00
                       o<<<<< (aa) dot          0.00
                       o<<<<< (ab) str          0.00
                       o<<<<< (ab) gath         0.00
                       o<<<<< (ab) dotab        0.00
                       o<<<<< (ab) scat         0.00
                       o<<<<< (ab) sync         0.00
                       o<<<<< Density           0.00
                       o<<<<< Density one       0.00
                       o<<<<< Density two       0.00
                       o<<<<< Density ab        0.00
                       o<<<<< Spin adapt        0.58
                       o<<<<< Symm adapt        0.00

                       o<<<<< (ab) max sync:      0.00
       0.0173     -76.11916989  4.65D-02  4.68D-02  3.54D+00 4.1D+00     34.0

          Number of sigma calls:       17
                       o<<<<< (aa):             0.00
                       o<<<<< (bb):             0.00
                       o<<<<< (ab):             0.08
                       o<<<<< (total)           0.08
                       o<<<<< (aa) ff           0.00
                       o<<<<< (aa) gop          0.00
                       o<<<<< (aa) dot          0.00
                       o<<<<< (ab) str          0.00
                       o<<<<< (ab) gath         0.00
                       o<<<<< (ab) dotab        0.00
                       o<<<<< (ab) scat         0.00
                       o<<<<< (ab) sync         0.00
                       o<<<<< Density           0.02
                       o<<<<< Density one       0.01
                       o<<<<< Density two       0.00
                       o<<<<< Density ab        0.01
                       o<<<<< Spin adapt        0.77
                       o<<<<< Symm adapt        0.00

                       o<<<<< (ab) max sync:      0.00
       0.0042     -76.11947200  6.82D-04  5.21D-05  3.48D+00 5.9D-02     35.0



          %%%%% MacroIteration  11 %%%%%


          Number of sigma calls:        1
                       o<<<<< (aa):             0.00
                       o<<<<< (bb):             0.00
                       o<<<<< (ab):             0.01
                       o<<<<< (total)           0.01
                       o<<<<< (aa) ff           0.00
                       o<<<<< (aa) gop          0.00
                       o<<<<< (aa) dot          0.00
                       o<<<<< (ab) str          0.00
                       o<<<<< (ab) gath         0.00
                       o<<<<< (ab) dotab        0.00
                       o<<<<< (ab) scat         0.00
                       o<<<<< (ab) sync         0.00
                       o<<<<< Density           0.01
                       o<<<<< Density one       0.00
                       o<<<<< Density two       0.00
                       o<<<<< Density ab        0.01
                       o<<<<< Spin adapt        0.00
                       o<<<<< Symm adapt        0.00

                       o<<<<< (ab) max sync:      0.00

           >>>| Valence CI:            -85.106342947460
           >>>| MCSCF energy:          -76.119472004897
           >>>| Gradient norm:          0.650623273D-01
     --- Warning:   18 Hessian diagonals < 0.05 ---
     --- Warning: Precondition failed to converge:Residue: current= 0.3D-01 required= 0.3D-01---

                              ----- Line search ------

        step       energy         lsg     num-lsg   num-lsh   lsrat    time
      ------- ---------------- --------- --------- --------- ------- --------
       0.0000     -76.11947200 -1.24D-02  0.00D+00  0.00D+00 0.0D+00     35.5

          Number of sigma calls:       15
                       o<<<<< (aa):             0.01
                       o<<<<< (bb):             0.01
                       o<<<<< (ab):             0.07
                       o<<<<< (total)           0.08
                       o<<<<< (aa) ff           0.00
                       o<<<<< (aa) gop          0.00
                       o<<<<< (aa) dot          0.00
                       o<<<<< (ab) str          0.00
                       o<<<<< (ab) gath         0.00
                       o<<<<< (ab) dotab        0.00
                       o<<<<< (ab) scat         0.00
                       o<<<<< (ab) sync         0.00
                       o<<<<< Density           0.01
                       o<<<<< Density one       0.00
[...]
    8    2    3    1       -0.0191159540
    8    2    3    2       -0.0510968185
    8    2    3    3        0.0000118557
    8    2    3    4       -0.0077544853
    8    2    3    5       -0.0026477856
    8    2    3    6        0.0162318566
    8    2    3    7        0.0043918113
    8    2    3    8       -0.0000101602
    8    3    3    1        0.0000036693
    8    3    3    2        0.0000149616
    8    3    3    3       -0.1994976250
    8    3    3    4        0.0000017103
    8    3    3    5        0.0000005493
    8    3    3    6       -0.0000117056
    8    3    3    7       -0.0000032509
    8    3    3    8        0.1605285444
    8    4    3    1       -0.0045586451
    8    4    3    2       -0.0013912857
    8    4    3    3       -0.0000105952
    8    4    3    4       -0.0059499339
    8    4    3    5       -0.0002970241
    8    4    3    6        0.0161395275
    8    4    3    7        0.0095294813
    8    4    3    8        0.0000055836
    8    5    3    1       -0.0015520915
    8    5    3    2       -0.0004750214
    8    5    3    3       -0.0000034288
    8    5    3    4       -0.0002944989
    8    5    3    5       -0.0051081727
    8    5    3    6        0.0097239493
    8    5    3    7       -0.0124573480
    8    5    3    8        0.0000017380
    8    6    3    1        0.0095226054
    8    6    3    2        0.0349655144
    8    6    3    3       -0.0000133474
    8    6    3    4        0.0300437853
    8    6    3    5        0.0166330239
    8    6    3    6       -0.0209093813
    8    6    3    7       -0.0013984756
    8    6    3    8        0.0000024988
    8    7    3    1        0.0025846526
    8    7    3    2        0.0094770435
    8    7    3    3       -0.0000034901
    8    7    3    4        0.0159626056
    8    7    3    5       -0.0183689759
    8    7    3    6       -0.0014043690
    8    7    3    7       -0.0160720241
    8    7    3    8        0.0000005050
    8    8    3    1       -0.0000033285
    8    8    3    2       -0.0000293312
    8    8    3    3        0.6568394656
    8    8    3    4       -0.0000073013
    8    8    3    5       -0.0000025258
    8    8    3    6        0.0000129946
    8    8    3    7        0.0000035896
    8    8    3    8       -0.1884641403
    8    1    4    1        0.0000002392
    8    1    4    2       -0.0000047167
    8    1    4    3       -0.0105043933
    8    1    4    4       -0.0000040468
    8    1    4    5       -0.0000006771
    8    1    4    6        0.0000030189
    8    1    4    7        0.0000011709
    8    1    4    8        0.0056251088
    8    2    4    1       -0.0000024550
    8    2    4    2       -0.0000062082
    8    2    4    3       -0.0071717412
    8    2    4    4       -0.0000029802
    8    2    4    5       -0.0000001288
    8    2    4    6        0.0000035255
    8    2    4    7        0.0000011447
    8    2    4    8        0.0058892173
    8    3    4    1        0.0042565952
    8    3    4    2        0.0044450826
    8    3    4    3        0.0000014322
    8    3    4    4       -0.1443918759
    8    3    4    5       -0.0022156727
    8    3    4    6        0.1005132496
    8    3    4    7        0.0669628386
    8    3    4    8        0.0000055836
    8    4    4    1        0.0000012831
    8    4    4    2        0.0000008719
    8    4    4    3       -0.0052565840
    8    4    4    4       -0.0000105056
    8    4    4    5        0.0000010752
    8    4    4    6        0.0000053010
    8    4    4    7        0.0000030917
    8    4    4    8        0.0184650546
    8    5    4    1       -0.0000000364
    8    5    4    2        0.0000008069
    8    5    4    3       -0.0003111048
    8    5    4    4       -0.0000013202
    8    5    4    5       -0.0000022578
    8    5    4    6        0.0000023470
    8    5    4    7        0.0000025346
    8    5    4    8        0.0011013636
    8    6    4    1       -0.0000011135
    8    6    4    2        0.0000019209
    8    6    4    3        0.0296055688
    8    6    4    4        0.0000018099
    8    6    4    5        0.0000002979
    8    6    4    6       -0.0000008187
    8    6    4    7       -0.0000004280
    8    6    4    8       -0.0062207447
    8    7    4    1       -0.0000011192
    8    7    4    2       -0.0000014520
    8    7    4    3        0.0155074677
    8    7    4    4       -0.0000015157
    8    7    4    5        0.0000025980
    8    7    4    6       -0.0000002734
    8    7    4    7       -0.0000008278
    8    7    4    8       -0.0039100990
    8    8    4    1       -0.0071034829
    8    8    4    2        0.0096698947
    8    8    4    3       -0.0000073013
    8    8    4    4        0.5774109879
    8    8    4    5        0.0059303176
    8    8    4    6       -0.1325005343
    8    8    4    7       -0.0880718835
    8    8    4    8       -0.0000111956
    8    1    5    1        0.0000001622
    8    1    5    2       -0.0000015236
    8    1    5    3       -0.0035725650
    8    1    5    4       -0.0000006756
    8    1    5    5       -0.0000021782
    8    1    5    6        0.0000013482
    8    1    5    7       -0.0000007004
    8    1    5    8        0.0019149197
    8    2    5    1       -0.0000008071
    8    2    5    2       -0.0000020895
    8    2    5    3       -0.0024499805
    8    2    5    4       -0.0000001273
    8    2    5    5       -0.0000026645
    8    2    5    6        0.0000014648
    8    2    5    7       -0.0000003058
    8    2    5    8        0.0020194019
    8    3    5    1        0.0014409766
    8    3    5    2        0.0014644091
    8    3    5    3        0.0000004526
    8    3    5    4       -0.0022169567
    8    3    5    5       -0.1379545459
    8    3    5    6        0.0670146544
    8    3    5    7       -0.0985397824
    8    3    5    8        0.0000017380
    8    4    5    1       -0.0000000229
    8    4    5    2        0.0000008032
    8    4    5    3       -0.0003139272
    8    4    5    4        0.0000010926
    8    4    5    5       -0.0000098023
    8    4    5    6        0.0000045412
    8    4    5    7       -0.0000051568
    8    4    5    8        0.0011013636
    8    5    5    1        0.0000013265
    8    5    5    2       -0.0000012401
    8    5    5    3       -0.0043714851
    8    5    5    4       -0.0000023065
    8    5    5    5       -0.0000051597
    8    5    5    6       -0.0000013344
    8    5    5    7       -0.0000019978
    8    5    5    8        0.0156193424
    8    6    5    1       -0.0000009982
    8    6    5    2       -0.0000007168
    8    6    5    3        0.0162012240
    8    6    5    4        0.0000002734
    8    6    5    5       -0.0000011619
    8    6    5    6       -0.0000006061
    8    6    5    7        0.0000008574
    8    6    5    8       -0.0039299079
    8    7    5    1        0.0000020018
    8    7    5    2        0.0000052134
    8    7    5    3       -0.0174908597
    8    7    5    4        0.0000026848
    8    7    5    5        0.0000016902
    8    7    5    6        0.0000000190
    8    7    5    7        0.0000003259
    8    7    5    8        0.0054378128
    8    8    5    1       -0.0024049850
    8    8    5    2        0.0033135508
    8    8    5    3       -0.0000025258
    8    8    5    4        0.0059303176
    8    8    5    5        0.5608556785
    8    8    5    6       -0.0883423925
    8    8    5    7        0.1296220700
    8    8    5    8       -0.0000035939
    8    1    6    1       -0.0000032574
    8    1    6    2        0.0000039194
    8    1    6    3        0.0124814774
    8    1    6    4        0.0000026806
    8    1    6    5        0.0000011564
    8    1    6    6       -0.0000057077
    8    1    6    7       -0.0000007185
    8    1    6    8       -0.0156785022
    8    2    6    1        0.0000026204
    8    2    6    2        0.0000086383
    8    2    6    3        0.0170449657
    8    2    6    4        0.0000041607
    8    2    6    5        0.0000018851
    8    2    6    6       -0.0000031202
    8    2    6    7       -0.0000008558
    8    2    6    8       -0.0121148400
    8    3    6    1       -0.0071022545
    8    3    6    2        0.0129024562
    8    3    6    3       -0.0000106577
    8    3    6    4        0.0968037031
    8    3    6    5        0.0649916998
    8    3    6    6       -0.1716620899
    8    3    6    7        0.0020095459
    8    3    6    8        0.0000024988
    8    4    6    1       -0.0000017133
    8    4    6    2        0.0000012632
    8    4    6    3        0.0159904779
    8    4    6    4        0.0000049465
    8    4    6    5        0.0000045066
    8    4    6    6       -0.0000101651
    8    4    6    7       -0.0000003124
    8    4    6    8       -0.0062207447
    8    5    6    1       -0.0000010555
    8    5    6    2        0.0000003501
    8    5    6    3        0.0098096276
    8    5    6    4        0.0000023978
    8    5    6    5       -0.0000018672
    8    5    6    6       -0.0000045768
    8    5    6    7        0.0000021803
    8    5    6    8       -0.0039299079
    8    6    6    1        0.0000024812
    8    6    6    2       -0.0000000032
    8    6    6    3       -0.0212037566
    8    6    6    4       -0.0000010352
    8    6    6    5       -0.0000007704
    8    6    6    6       -0.0000008138
    8    6    6    7        0.0000004911
    8    6    6    8        0.0371222499
    8    7    6    1       -0.0000003551
    8    7    6    2       -0.0000014472
    8    7    6    3       -0.0015157991
    8    7    6    4       -0.0000003389
    8    7    6    5        0.0000001026
    8    7    6    6        0.0000019201
    8    7    6    7       -0.0000036066
    8    7    6    8        0.0033146564
    8    8    6    1        0.0101416530
    8    8    6    2       -0.0140588688
    8    8    6    3        0.0000129946
    8    8    6    4       -0.1325005343
    8    8    6    5       -0.0883423925
    8    8    6    6        0.5961388447
    8    8    6    7       -0.0008080799
    8    8    6    8       -0.0000080204
    8    1    7    1       -0.0000007686
    8    1    7    2        0.0000011304
    8    1    7    3        0.0033832615
    8    1    7    4        0.0000009918
    8    1    7    5       -0.0000004900
    8    1    7    6       -0.0000007186
    8    1    7    7       -0.0000030998
    8    1    7    8       -0.0042532474
    8    2    7    1        0.0000007450
    8    2    7    2        0.0000023752
    8    2    7    3        0.0046165142
    8    2    7    4        0.0000016432
    8    2    7    5       -0.0000010508
    8    2    7    6       -0.0000008546
    8    2    7    7        0.0000002354
    8    2    7    8       -0.0032739194
    8    3    7    1       -0.0019258313
    8    3    7    2        0.0034758977
    8    3    7    3       -0.0000029782
    8    3    7    4        0.0650014315
    8    3    7    5       -0.0963319125
    8    3    7    6        0.0020124020
    8    3    7    7       -0.1791114949
    8    3    7    8        0.0000005050
    8    4    7    1       -0.0000010769
    8    4    7    2        0.0000002279
    8    4    7    3        0.0096529810
    8    4    7    4        0.0000029876
    8    4    7    5       -0.0000049668
    8    4    7    6       -0.0000003328
    8    4    7    7       -0.0000125053
    8    4    7    8       -0.0039100990
    8    5    7    1        0.0000014883
    8    5    7    2        0.0000004174
    8    5    7    3       -0.0129125051
    8    5    7    4        0.0000024338
    8    5    7    5       -0.0000020821
    8    5    7    6        0.0000022392
    8    5    7    7       -0.0000025869
    8    5    7    8        0.0054378128
    8    6    7    1       -0.0000003773
    8    6    7    2       -0.0000014244
    8    6    7    3       -0.0015082771
    8    6    7    4       -0.0000005247
    8    6    7    5        0.0000010316
    8    6    7    6        0.0000004956
    8    6    7    7        0.0000008371
    8    6    7    8        0.0033146564
    8    7    7    1        0.0000040193
    8    7    7    2        0.0000053167
    8    7    7    3       -0.0159853907
    8    7    7    4       -0.0000009954
    8    7    7    5        0.0000003633
    8    7    7    6       -0.0000036225
    8    7    7    7       -0.0000018109
    8    7    7    8        0.0259453534
    8    8    7    1        0.0027453602
    8    8    7    2       -0.0037458628
    8    8    7    3        0.0000035896
    8    8    7    4       -0.0880718835
    8    8    7    5        0.1296220700
    8    8    7    6       -0.0008080799
    8    8    7    7        0.6000519196
    8    8    7    8       -0.0000019314
    8    1    8    1        0.0542340335
    8    1    8    2        0.0268506270
    8    1    8    3       -0.0000062324
    8    1    8    4        0.0052989935
    8    1    8    5        0.0018046508
    8    1    8    6       -0.0154447023
    8    1    8    7       -0.0041897564
    8    1    8    8        0.0000080542
    8    2    8    1        0.0268506270
    8    2    8    2        0.0517009196
    8    2    8    3       -0.0000082100
    8    2    8    4        0.0057625522
    8    2    8    5        0.0019774832
    8    2    8    6       -0.0130514704
    8    2    8    7       -0.0035277386
    8    2    8    8        0.0000103645
    8    3    8    1       -0.0000062324
    8    3    8    2       -0.0000082100
    8    3    8    3        0.1564041721
    8    3    8    4        0.0000059661
    8    3    8    5        0.0000018808
    8    3    8    6        0.0000022873
    8    3    8    7        0.0000004437
    8    3    8    8       -0.1884641403
    8    4    8    1        0.0052989935
    8    4    8    2        0.0057625522
    8    4    8    3        0.0000059661
    8    4    8    4        0.0179843593
    8    4    8    5        0.0010318865
    8    4    8    6       -0.0064019402
    8    4    8    7       -0.0040970375
    8    4    8    8       -0.0000111956
    8    5    8    1        0.0018046508
    8    5    8    2        0.0019774832
    8    5    8    3        0.0000018808
    8    5    8    4        0.0010318865
    8    5    8    5        0.0153670254
    8    5    8    6       -0.0041054425
    8    5    8    7        0.0057934974
    8    5    8    8       -0.0000035939
    8    6    8    1       -0.0154447023
    8    6    8    2       -0.0130514704
    8    6    8    3        0.0000022873
    8    6    8    4       -0.0064019402
    8    6    8    5       -0.0041054425
    8    6    8    6        0.0371232198
    8    6    8    7        0.0032988596
    8    6    8    8       -0.0000080204
    8    7    8    1       -0.0041897564
    8    7    8    2       -0.0035277386
    8    7    8    3        0.0000004437
    8    7    8    4       -0.0040970375
    8    7    8    5        0.0057934974
    8    7    8    6        0.0032988596
    8    7    8    7        0.0260004028
    8    7    8    8       -0.0000019314
    8    8    8    1        0.0000080542
    8    8    8    2        0.0000103645
    8    8    8    3       -0.1884641403
    8    8    8    4       -0.0000111956
    8    8    8    5       -0.0000035939
    8    8    8    6       -0.0000080204
    8    8    8    7       -0.0000019314
    8    8    8    8        0.6267905644
 end_two_electron_integrals

 Parallel integral file used      16 records with       0 large values


 Task  times  cpu:      845.2s     wall:      849.9s


                                NWChem Input Module
                                -------------------


 Summary of allocated global arrays
-----------------------------------
  No active global arrays


MA_summarize_allocated_blocks: starting scan ...
MA_summarize_allocated_blocks: scan completed: 0 heap blocks, 0 stack blocks
MA usage statistics:

	allocation statistics:
					      heap	     stack
					      ----	     -----
	current number of blocks	         0	         0
	maximum number of blocks	        18	        42
	current total bytes		         0	         0
	maximum total bytes		  25775960	4725685720
	maximum total K-bytes		     25776	   4725686
	maximum total M-bytes		        26	      4726


                                     CITATION
                                     --------
                Please cite the following reference when publishing
                           results obtained with NWChem:

          E. Apra, E. J. Bylaska, W. A. de Jong, N. Govind, K. Kowalski,
       T. P. Straatsma, M. Valiev, H. J. J. van Dam, Y. Alexeev, J. Anchell,
       V. Anisimov, F. W. Aquino, R. Atta-Fynn, J. Autschbach, N. P. Bauman,
     J. C. Becca, D. E. Bernholdt, K. Bhaskaran-Nair, S. Bogatko, P. Borowski,
         J. Boschen, J. Brabec, A. Bruner, E. Cauet, Y. Chen, G. N. Chuev,
      C. J. Cramer, J. Daily, M. J. O. Deegan, T. H. Dunning Jr., M. Dupuis,
   K. G. Dyall, G. I. Fann, S. A. Fischer, A. Fonari, H. Fruchtl, L. Gagliardi,
      J. Garza, N. Gawande, S. Ghosh, K. Glaesemann, A. W. Gotz, J. Hammond,
       V. Helms, E. D. Hermes, K. Hirao, S. Hirata, M. Jacquelin, L. Jensen,
   B. G. Johnson, H. Jonsson, R. A. Kendall, M. Klemm, R. Kobayashi, V. Konkov,
      S. Krishnamoorthy, M. Krishnan, Z. Lin, R. D. Lins, R. J. Littlefield,
      A. J. Logsdail, K. Lopata, W. Ma, A. V. Marenich, J. Martin del Campo,
   D. Mejia-Rodriguez, J. E. Moore, J. M. Mullin, T. Nakajima, D. R. Nascimento,
    J. A. Nichols, P. J. Nichols, J. Nieplocha, A. Otero-de-la-Roza, B. Palmer,
    A. Panyala, T. Pirojsirikul, B. Peng, R. Peverati, J. Pittner, L. Pollack,
   R. M. Richard, P. Sadayappan, G. C. Schatz, W. A. Shelton, D. W. Silverstein,
   D. M. A. Smith, T. A. Soares, D. Song, M. Swart, H. L. Taylor, G. S. Thomas,
            V. Tipparaju, D. G. Truhlar, K. Tsemekhman, T. Van Voorhis,
      A. Vazquez-Mayagoitia, P. Verma, O. Villa, A. Vishnu, K. D. Vogiatzis,
        D. Wang, J. H. Weare, M. J. Williamson, T. L. Windus, K. Wolinski,
        A. T. Wong, Q. Wu, C. Yang, Q. Yu, M. Zacharias, Z. Zhang, Y. Zhao,
                                and R. J. Harrison
                        "NWChem: Past, present, and future
                         J. Chem. Phys. 152, 184102 (2020)
                               doi:10.1063/5.0004997

                                      AUTHORS
                                      -------
  E. Apra, E. J. Bylaska, N. Govind, K. Kowalski, M. Valiev, D. Mejia-Rodriguez,
       A. Kunitsa, N. P. Bauman, A. Panyala, W. A. de Jong, T. P. Straatsma,
        H. J. J. van Dam, D. Wang, T. L. Windus, J. Hammond, J. Autschbach,
    K. Bhaskaran-Nair, J. Brabec, K. Lopata, S. A. Fischer, S. Krishnamoorthy,
     M. Jacquelin, W. Ma, M. Klemm, O. Villa, Y. Chen, V. Anisimov, F. Aquino,
    S. Hirata, M. T. Hackler, Eric Hermes, L. Jensen, J. E. Moore, J. C. Becca,
      V. Konjkov, T. Risthaus, M. Malagoli, A. Marenich, A. Otero-de-la-Roza,
        J. Mullin, P. Nichols, R. Peverati, J. Pittner, Y. Zhao, P.-D. Fan,
        A. Fonari, M. J. Williamson, R. J. Harrison, J. R. Rehr, M. Dupuis,
     D. Silverstein, D. M. A. Smith, J. Nieplocha, V. Tipparaju, M. Krishnan,
     B. E. Van Kuiken, A. Vazquez-Mayagoitia, M. Swart, Q. Wu, T. Van Voorhis,
     A. A. Auer, M. Nooijen, L. D. Crosby, E. Brown, G. Cisneros, G. I. Fann,
   H. Fruchtl, J. Garza, K. Hirao, R. A. Kendall, J. A. Nichols, K. Tsemekhman,
    K. Wolinski, J. Anchell, D. E. Bernholdt, P. Borowski, T. Clark, D. Clerc,
   H. Dachsel, M. J. O. Deegan, K. Dyall, D. Elwood, E. Glendening, M. Gutowski,
   A. C. Hess, J. Jaffe, B. G. Johnson, J. Ju, R. Kobayashi, R. Kutteh, Z. Lin,
   R. Littlefield, X. Long, B. Meng, T. Nakajima, S. Niu, L. Pollack, M. Rosing,
   K. Glaesemann, G. Sandrone, M. Stave, H. Taylor, G. Thomas, J. H. van Lenthe,
                               A. T. Wong, Z. Zhang.

 Total times  cpu:      927.3s     wall:      996.5s
