 argument  1 = input.nw
  NWChem w/ OpenMP: maximum threads =    1



============================== echo of input deck ==============================
 echo
 start H2O
 title "H2O"

 memory total 24 gb

 geometry units bohr
 symmetry c1
        O  0.00000000  0.00000000  0.00000000
        H  0.00000000  2.11075025  0.00000000
        H  1.72558000 -0.64860000  0.00000000
 end

 basis spherical
   * library cc-pVTZ
 end

 mcscf
   active  8
   actelec 10
   multiplicity 1
   maxiter 40
   vectors input h2o.mos
   vectors output h2o.mos
 end

 task mcscf

 scf
   vectors input h2o.mos
   vectors output h2o-trash.mos
   noscf
 end

 tce
   2eorb
   2emet 13
   ccsd
 end

# set tce:print_integrals T
# set tce:qorb 8
# set tce:qela 5
# set tce:qelb 5

 set tce:qducc T
 set tce:nactv 3
 set tce:nonhf T
 set tce:ducc_model 6

 set tce:printtol 0.02

 task tce
================================================================================


                                         
                                         


             Northwest Computational Chemistry Package (NWChem) 7.0.1
             --------------------------------------------------------


                    Environmental Molecular Sciences Laboratory
                       Pacific Northwest National Laboratory
                                Richland, WA 99352

                              Copyright (c) 1994-2020
                       Pacific Northwest National Laboratory
                            Battelle Memorial Institute

             NWChem is an open-source computational chemistry package
                        distributed under the terms of the
                      Educational Community License (ECL) 2.0
             A copy of the license is included with this distribution
                              in the LICENSE.TXT file

                                  ACKNOWLEDGMENT
                                  --------------

            This software and its documentation were developed at the
            EMSL at Pacific Northwest National Laboratory, a multiprogram
            national laboratory, operated for the U.S. Department of Energy
            by Battelle under Contract Number DE-AC05-76RL01830. Support
            for this work was provided by the Department of Energy Office
            of Biological and Environmental Research, Office of Basic
            Energy Sciences, and the Office of Advanced Scientific Computing.


           Job information
           ---------------

    hostname        = WE46210
    program         = /home/baum612/code/nwchem/bin/LINUX64/nwchem
    date            = Fri Feb 16 18:49:11 2024

    compiled        = Fri_Feb_16_11:09:52_2024
    source          = /home/baum612/code/nwchem
    nwchem branch   = 7.0.0
    nwchem revision = nwchem_on_git-4191-g39d87d64de
    ga revision     = 5.8.1
    use scalapack   = F
    input           = input.nw
    prefix          = H2O.
    data base       = ./H2O.db
    status          = startup
    nproc           =        1
    time left       =     -1s



           Memory information
           ------------------

    heap     =  805306362 doubles =   6144.0 Mbytes
    stack    =  805306367 doubles =   6144.0 Mbytes
    global   = 1610612736 doubles =  12288.0 Mbytes (distinct from heap & stack)
    total    = 3221225465 doubles =  24576.0 Mbytes
    verify   = yes
    hardfail = no 


           Directory information
           ---------------------

  0 permanent = .
  0 scratch   = .




                                NWChem Input Module
                                -------------------


                                        H2O
                                        ---
 Turning off AUTOSYM since
 SYMMETRY directive was detected!


          ------
          auto-z
          ------
  no constraints, skipping    0.0000000000000000     
  no constraints, skipping    0.0000000000000000     


                             Geometry "geometry" -> ""
                             -------------------------

 Output coordinates in a.u. (scale by  1.000000000 to convert to a.u.)

  No.       Tag          Charge          X              Y              Z
 ---- ---------------- ---------- -------------- -------------- --------------
    1 O                    8.0000    -0.17255800    -0.14621503     0.00000000
    2 H                    1.0000    -0.17255800     1.96453523     0.00000000
    3 H                    1.0000     1.55302200    -0.79481503     0.00000000

      Atomic Mass 
      ----------- 

      O                 15.994910
      H                  1.007825


 Effective nuclear repulsion energy (a.u.)       8.4370792125

            Nuclear Dipole moment (a.u.) 
            ----------------------------
        X                 Y               Z
 ---------------- ---------------- ----------------
    -0.0000000000     0.0000000000     0.0000000000



                                Z-matrix (autoz)
                                -------- 

 Units are Angstrom for bonds and degrees for angles

      Type          Name      I     J     K     L     M      Value
      ----------- --------  ----- ----- ----- ----- ----- ----------
    1 Stretch                  1     2                       1.11696
    2 Stretch                  1     3                       0.97551
    3 Bend                     2     1     3               110.59992


            XYZ format geometry
            -------------------
     3
 geometry
 O                    -0.09131377    -0.07737366     0.00000000
 H                    -0.09131377     1.03958735     0.00000000
 H                     0.82182391    -0.42059803     0.00000000

 ==============================================================================
                                internuclear distances
 ------------------------------------------------------------------------------
       center one      |      center two      | atomic units |       a.u.
 ------------------------------------------------------------------------------
    3 H                |   1 O                |     1.84345  |     1.84345
 ------------------------------------------------------------------------------
                         number of included internuclear distances:          1
 ==============================================================================





 Summary of "ao basis" -> "" (spherical)
 ------------------------------------------------------------------------------
       Tag                 Description            Shells   Functions and Types
 ---------------- ------------------------------  ------  ---------------------
 *                          cc-pVTZ                   on all atoms 


                      Basis "ao basis" -> "ao basis" (spherical)
                      -----
  O (Oxygen)
  ----------
            Exponent  Coefficients 
       -------------- ---------------------------------------------------------
  1 S  1.53300000E+04  0.000508
  1 S  2.29900000E+03  0.003929
  1 S  5.22400000E+02  0.020243
  1 S  1.47300000E+02  0.079181
  1 S  4.75500000E+01  0.230687
  1 S  1.67600000E+01  0.433118
  1 S  6.20700000E+00  0.350260
  1 S  6.88200000E-01 -0.008154

  2 S  1.53300000E+04 -0.000115
  2 S  2.29900000E+03 -0.000895
  2 S  5.22400000E+02 -0.004636
  2 S  1.47300000E+02 -0.018724
  2 S  4.75500000E+01 -0.058463
  2 S  1.67600000E+01 -0.136463
  2 S  6.20700000E+00 -0.175740
  2 S  6.88200000E-01  0.603418

  3 S  1.75200000E+00  1.000000

  4 S  2.38400000E-01  1.000000

  5 P  3.44600000E+01  0.015928
  5 P  7.74900000E+00  0.099740
  5 P  2.28000000E+00  0.310492

  6 P  7.15600000E-01  1.000000

  7 P  2.14000000E-01  1.000000

  8 D  2.31400000E+00  1.000000

  9 D  6.45000000E-01  1.000000

 10 F  1.42800000E+00  1.000000

  H (Hydrogen)
  ------------
            Exponent  Coefficients 
       -------------- ---------------------------------------------------------
  1 S  3.38700000E+01  0.006068
  1 S  5.09500000E+00  0.045308
  1 S  1.15900000E+00  0.202822

  2 S  3.25800000E-01  1.000000

  3 S  1.02700000E-01  1.000000

  4 P  1.40700000E+00  1.000000

  5 P  3.88000000E-01  1.000000

  6 D  1.05700000E+00  1.000000



 Summary of "ao basis" -> "ao basis" (spherical)
 ------------------------------------------------------------------------------
       Tag                 Description            Shells   Functions and Types
 ---------------- ------------------------------  ------  ---------------------
 O                          cc-pVTZ                 10       30   4s3p2d1f
 H                          cc-pVTZ                  6       14   3s2p1d



                            NWChem Direct MCSCF Module
                            --------------------------


                                        H2O


     -----------------------------------
       Basis functions:             58
       Inactive shells:              0
       Active shells:                8
       Active electrons:            10
       Symmetry:                    a       
       Multiplicity:                 1
       Orbital rotations:          400
     -----------------------------------

     -----------------------------------
       E2 extrapolation:             F
       Conjugacy:                    T
       Micro CI relax:               T
       Canonical orbitals:           T
       Maximum iterations:          40
       Converge threshold:    1.00E-04
       Conjugacy resets:            20
       Initial levelshift:        0.10
     -----------------------------------

 Loading old vectors from job with title :

H2O


   input molecular orbitals = ./h2o.mos
  output molecular orbtials = ./h2o.mos

       No. of determinants:          3136


  Starting Orbital Energies
   -20.554487    -1.315423    -0.703505    -0.570168    -0.519912    -0.031958
    -0.025766    -0.015863     0.306257     0.335451     0.611214     0.684436
     0.816670     0.829306     0.971990     1.125572     1.184297     1.269027
     1.404721     1.949117     2.051585     2.094049     2.150885     2.280089
     2.600104     2.833104     3.347941     3.467739     3.473425     3.519014
     3.557682     3.745305     3.874627     3.904073     3.918500     4.003413
     4.078874     4.196920     4.279423     4.313875     4.537867     4.646651
     4.958649     5.164432     5.530365     5.865627     6.157811     6.470870
     6.796919     6.889317     6.982564     7.025421     7.097675     7.148322
     7.411156     7.570824     7.867117    11.687579

  Orbital Symmetry Irreps
a    a    a    a    a    a    a    a    a    a    a    a    a    a    a   
a    a    a    a    a    a    a    a    a    a    a    a    a    a    a   
a    a    a    a    a    a    a    a    a    a    a    a    a    a    a   
a    a    a    a    a    a    a    a    a    a    a    a    a   

 Integral file          = ./H2O.aoints.0
 Record size in doubles =  65536        No. of integs per rec  =  43688
 Max. records in memory =     49        Max. records in file   = 252518
 No. of bits per label  =      8        No. of bits per value  =     64


 #quartets = 3.213D+04 #integrals = 6.608D+05 #direct =  0.0% #cached =100.0%




          %%%%% MacroIteration   1 %%%%%


          Number of sigma calls:       15
                       o<<<<< (aa):             0.00
                       o<<<<< (bb):             0.00
                       o<<<<< (ab):             0.08
                       o<<<<< (total)           0.09
                       o<<<<< (aa) ff           0.00
                       o<<<<< (aa) gop          0.00
                       o<<<<< (aa) dot          0.00
                       o<<<<< (ab) str          0.00
                       o<<<<< (ab) gath         0.00
                       o<<<<< (ab) dotab        0.00
                       o<<<<< (ab) scat         0.00
                       o<<<<< (ab) sync         0.00
                       o<<<<< Density           0.01
                       o<<<<< Density one       0.00
                       o<<<<< Density two       0.00
                       o<<<<< Density ab        0.00
                       o<<<<< Spin adapt        0.47
                       o<<<<< Symm adapt        0.00

                       o<<<<< (ab) max sync:      0.00

           >>>| Valence CI:            -84.568500465284
           >>>| MCSCF energy:          -76.131421252834
           >>>| Gradient norm:          0.814705470D-02

                              ----- Line search ------

        step       energy         lsg     num-lsg   num-lsh   lsrat    time
      ------- ---------------- --------- --------- --------- ------- --------
       0.0000     -76.13142125 -7.31D-06  0.00D+00  0.00D+00 0.0D+00      1.4

          Number of sigma calls:       14
                       o<<<<< (aa):             0.00
                       o<<<<< (bb):             0.00
                       o<<<<< (ab):             0.08
                       o<<<<< (total)           0.09
                       o<<<<< (aa) ff           0.00
                       o<<<<< (aa) gop          0.00
                       o<<<<< (aa) dot          0.00
                       o<<<<< (ab) str          0.00
                       o<<<<< (ab) gath         0.00
                       o<<<<< (ab) dotab        0.00
                       o<<<<< (ab) scat         0.00
                       o<<<<< (ab) sync         0.00
                       o<<<<< Density           0.02
                       o<<<<< Density one       0.00
                       o<<<<< Density two       0.00
                       o<<<<< Density ab        0.01
                       o<<<<< Spin adapt        0.33
                       o<<<<< Symm adapt        0.00

                       o<<<<< (ab) max sync:      0.00
       1.0000     -76.13142507 -3.14D-07 -3.14D-07  7.00D-06 4.3D-02      1.9
     --- Orbitals canonicalized ---



          %%%%% MacroIteration   2 %%%%%


          Number of sigma calls:       12
                       o<<<<< (aa):             0.00
                       o<<<<< (bb):             0.00
                       o<<<<< (ab):             0.05
                       o<<<<< (total)           0.06
                       o<<<<< (aa) ff           0.00
                       o<<<<< (aa) gop          0.00
                       o<<<<< (aa) dot          0.00
                       o<<<<< (ab) str          0.00
                       o<<<<< (ab) gath         0.00
                       o<<<<< (ab) dotab        0.00
                       o<<<<< (ab) scat         0.00
                       o<<<<< (ab) sync         0.00
                       o<<<<< Density           0.00
                       o<<<<< Density one       0.00
                       o<<<<< Density two       0.00
                       o<<<<< Density ab        0.00
                       o<<<<< Spin adapt        0.31
                       o<<<<< Symm adapt        0.00

                       o<<<<< (ab) max sync:      0.00

           >>>| Valence CI:            -84.568504278591
           >>>| MCSCF energy:          -76.131425066142
           >>>| Gradient norm:          0.726461195D-03
     --- Warning:    2 Hessian diagonals < 0.05 ---
     --- Conjugacy reset ---

                              ----- Line search ------

        step       energy         lsg     num-lsg   num-lsh   lsrat    time
      ------- ---------------- --------- --------- --------- ------- --------
       0.0000     -76.13142507 -9.59D-08  0.00D+00  0.00D+00 0.0D+00      2.6

          Number of sigma calls:       10
                       o<<<<< (aa):             0.00
                       o<<<<< (bb):             0.00
                       o<<<<< (ab):             0.03
                       o<<<<< (total)           0.03
                       o<<<<< (aa) ff           0.00
                       o<<<<< (aa) gop          0.00
                       o<<<<< (aa) dot          0.00
                       o<<<<< (ab) str          0.00
                       o<<<<< (ab) gath         0.00
                       o<<<<< (ab) dotab        0.00
                       o<<<<< (ab) scat         0.00
                       o<<<<< (ab) sync         0.00
                       o<<<<< Density           0.00
                       o<<<<< Density one       0.00
                       o<<<<< Density two       0.00
                       o<<<<< Density ab        0.00
                       o<<<<< Spin adapt        0.28
                       o<<<<< Symm adapt        0.00

                       o<<<<< (ab) max sync:      0.00
       1.0000     -76.13142513 -3.24D-08 -3.24D-08  6.35D-08 3.4D-01      3.0

          Number of sigma calls:        9
                       o<<<<< (aa):             0.00
                       o<<<<< (bb):             0.00
                       o<<<<< (ab):             0.05
                       o<<<<< (total)           0.06
                       o<<<<< (aa) ff           0.00
                       o<<<<< (aa) gop          0.00
                       o<<<<< (aa) dot          0.00
                       o<<<<< (ab) str          0.00
                       o<<<<< (ab) gath         0.00
                       o<<<<< (ab) dotab        0.00
                       o<<<<< (ab) scat         0.00
                       o<<<<< (ab) sync         0.00
                       o<<<<< Density           0.04
                       o<<<<< Density one       0.01
                       o<<<<< Density two       0.01
                       o<<<<< Density ab        0.02
                       o<<<<< Spin adapt        0.31
                       o<<<<< Symm adapt        0.00

                       o<<<<< (ab) max sync:      0.00
       1.5109     -76.13142514  2.89D-11  2.68D-11  6.35D-08 3.0D-04      3.5



          %%%%% MacroIteration   3 %%%%%


          Number of sigma calls:        1
                       o<<<<< (aa):             0.00
                       o<<<<< (bb):             0.00
                       o<<<<< (ab):             0.02
                       o<<<<< (total)           0.02
                       o<<<<< (aa) ff           0.00
                       o<<<<< (aa) gop          0.00
                       o<<<<< (aa) dot          0.00
                       o<<<<< (ab) str          0.00
                       o<<<<< (ab) gath         0.00
                       o<<<<< (ab) dotab        0.00
                       o<<<<< (ab) scat         0.00
                       o<<<<< (ab) sync         0.00
                       o<<<<< Density           0.03
                       o<<<<< Density one       0.00
                       o<<<<< Density two       0.01
                       o<<<<< Density ab        0.02
                       o<<<<< Spin adapt        0.00
                       o<<<<< Symm adapt        0.00

                       o<<<<< (ab) max sync:      0.00

           >>>| Valence CI:            -84.568504351018
           >>>| MCSCF energy:          -76.131425138568
           >>>| Gradient norm:          0.100260437D-03
     --- Warning:    2 Hessian diagonals < 0.05 ---

                              ----- Line search ------

        step       energy         lsg     num-lsg   num-lsh   lsrat    time
      ------- ---------------- --------- --------- --------- ------- --------
       0.0000     -76.13142514 -2.19D-09  0.00D+00  0.00D+00 0.0D+00      4.0

          Number of sigma calls:        8
                       o<<<<< (aa):             0.00
                       o<<<<< (bb):             0.00
                       o<<<<< (ab):             0.03
                       o<<<<< (total)           0.03
                       o<<<<< (aa) ff           0.00
                       o<<<<< (aa) gop          0.00
                       o<<<<< (aa) dot          0.00
                       o<<<<< (ab) str          0.00
                       o<<<<< (ab) gath         0.00
                       o<<<<< (ab) dotab        0.00
                       o<<<<< (ab) scat         0.00
                       o<<<<< (ab) sync         0.00
                       o<<<<< Density           0.01
                       o<<<<< Density one       0.00
                       o<<<<< Density two       0.00
                       o<<<<< Density ab        0.01
                       o<<<<< Spin adapt        0.22
                       o<<<<< Symm adapt        0.00

                       o<<<<< (ab) max sync:      0.00
       1.0000     -76.13142514 -4.51D-10 -4.51D-10  1.74D-09 2.1D-01      4.3

          Number of sigma calls:        7
                       o<<<<< (aa):             0.00
                       o<<<<< (bb):             0.00
                       o<<<<< (ab):             0.02
                       o<<<<< (total)           0.02
                       o<<<<< (aa) ff           0.00
                       o<<<<< (aa) gop          0.00
                       o<<<<< (aa) dot          0.00
                       o<<<<< (ab) str          0.00
                       o<<<<< (ab) gath         0.00
                       o<<<<< (ab) dotab        0.00
                       o<<<<< (ab) scat         0.00
                       o<<<<< (ab) sync         0.00
                       o<<<<< Density           0.00
                       o<<<<< Density one       0.00
                       o<<<<< Density two       0.00
                       o<<<<< Density ab        0.00
                       o<<<<< Spin adapt        0.18
                       o<<<<< Symm adapt        0.00

                       o<<<<< (ab) max sync:      0.00
       1.2590     -76.13142514  2.46D-14  8.49D-13  1.74D-09 1.1D-05      4.6



          %%%%% MacroIteration   4 %%%%%


          Number of sigma calls:        1
                       o<<<<< (aa):             0.00
                       o<<<<< (bb):             0.00
                       o<<<<< (ab):             0.00
                       o<<<<< (total)           0.00
                       o<<<<< (aa) ff           0.00
                       o<<<<< (aa) gop          0.00
                       o<<<<< (aa) dot          0.00
                       o<<<<< (ab) str          0.00
                       o<<<<< (ab) gath         0.00
                       o<<<<< (ab) dotab        0.00
                       o<<<<< (ab) scat         0.00
                       o<<<<< (ab) sync         0.00
                       o<<<<< Density           0.01
                       o<<<<< Density one       0.00
                       o<<<<< Density two       0.00
                       o<<<<< Density ab        0.01
                       o<<<<< Spin adapt        0.00
                       o<<<<< Symm adapt        0.00

                       o<<<<< (ab) max sync:      0.00

           >>>| Valence CI:            -84.568504352399
           >>>| MCSCF energy:          -76.131425139948
           >>>| Gradient norm:          0.233616594D-04




     ==============================
            MCSCF Converged
     ==============================



          Canonical Eigenvalues

              1      
    1  -20.5548
    2   -1.3147
    3   -0.7025
    4   -0.5697
    5   -0.5198
    6   -0.0322
    7   -0.0258
    8   -0.0159
    9    0.3066
   10    0.3355
   11    0.6111
   12    0.6856
   13    0.8170
   14    0.8288
   15    0.9719
   16    1.1242
   17    1.1852
   18    1.2663
   19    1.4051
   20    1.9471
   21    2.0514
   22    2.0930
   23    2.1520
   24    2.2831
   25    2.6010
   26    2.8317
   27    3.3473
   28    3.4662
   29    3.4724
   30    3.5171
   31    3.5582
   32    3.7409
   33    3.8741
   34    3.9031
   35    3.9119
   36    4.0034
   37    4.0788
   38    4.1922
   39    4.2748
   40    4.3107
   41    4.5355
   42    4.6427
   43    4.9575
   44    5.1614
   45    5.5298
   46    5.8626
   47    6.1505
   48    6.4575
   49    6.7935
   50    6.8889
   51    6.9824
   52    7.0237
   53    7.0975
   54    7.1476
   55    7.4071
   56    7.5682
   57    7.8573
   58   11.6617


          Converged CI vector

   Index           Coefficient          Config. Occupation
         1          0.97150997          1  2  3  4  5  1  2  3  4  5
        22         -0.07358473          1  2  3  4  5  1  2  3  4  8
         3         -0.04424072          1  2  3  4  5  1  2  3  5  6
         8         -0.02718305          1  2  3  4  5  1  2  3  5  7
        27          0.02015917          1  2  3  4  5  1  2  3  6  8
         4         -0.02834030          1  2  3  4  5  1  2  4  5  6
         9          0.03757955          1  2  3  4  5  1  2  4  5  7
        38         -0.02168934          1  2  3  4  5  1  2  4  7  8
      1177         -0.07358473          1  2  3  4  8  1  2  3  4  5
      1198         -0.05158082          1  2  3  4  8  1  2  3  4  8
      1179         -0.02553089          1  2  3  4  8  1  2  3  5  6
      1180         -0.02229418          1  2  3  4  8  1  2  4  5  6
      1185          0.02913762          1  2  3  4  8  1  2  4  5  7
       113         -0.04424072          1  2  3  5  6  1  2  3  4  5
       134         -0.02553089          1  2  3  5  6  1  2  3  4  8
       115         -0.05422540          1  2  3  5  6  1  2  3  5  6
       116         -0.04123449          1  2  3  5  6  1  2  4  5  6
       117         -0.02018685          1  2  3  5  6  1  3  4  5  6
       393         -0.02718305          1  2  3  5  7  1  2  3  4  5
       400         -0.02423402          1  2  3  5  7  1  2  3  5  7
       401          0.02715742          1  2  3  5  7  1  2  4  5  7
      1457          0.02015917          1  2  3  6  8  1  2  3  4  5
       169         -0.02834030          1  2  4  5  6  1  2  3  4  5
       190         -0.02229418          1  2  4  5  6  1  2  3  4  8
       171         -0.04123449          1  2  4  5  6  1  2  3  5  6
       172         -0.04686832          1  2  4  5  6  1  2  4  5  6
       177          0.02006683          1  2  4  5  6  1  2  4  5  7
       173         -0.02216645          1  2  4  5  6  1  3  4  5  6
       449          0.03757955          1  2  4  5  7  1  2  3  4  5
       470          0.02913762          1  2  4  5  7  1  2  3  4  8
       456          0.02715742          1  2  4  5  7  1  2  3  5  7
       452          0.02006683          1  2  4  5  7  1  2  4  5  6
       457         -0.05167092          1  2  4  5  7  1  2  4  5  7
       458          0.02362497          1  2  4  5  7  1  3  4  5  7
      2073         -0.02168934          1  2  4  7  8  1  2  3  4  5
       227         -0.02018685          1  3  4  5  6  1  2  3  5  6
       228         -0.02216645          1  3  4  5  6  1  2  4  5  6
       229         -0.02350330          1  3  4  5  6  1  3  4  5  6
       513          0.02362497          1  3  4  5  7  1  2  4  5  7
       514         -0.02291837          1  3  4  5  7  1  3  4  5  7

          Number of sigma calls:        1
                       o<<<<< (aa):             0.00
                       o<<<<< (bb):             0.00
                       o<<<<< (ab):             0.01
                       o<<<<< (total)           0.01
                       o<<<<< (aa) ff           0.00
                       o<<<<< (aa) gop          0.00
                       o<<<<< (aa) dot          0.00
                       o<<<<< (ab) str          0.00
                       o<<<<< (ab) gath         0.00
                       o<<<<< (ab) dotab        0.00
                       o<<<<< (ab) scat         0.00
                       o<<<<< (ab) sync         0.00
                       o<<<<< Density           0.02
                       o<<<<< Density one       0.01
                       o<<<<< Density two       0.00
                       o<<<<< Density ab        0.01
                       o<<<<< Spin adapt        0.00
                       o<<<<< Symm adapt        0.00

                       o<<<<< (ab) max sync:      0.00



          Natural orbital occupation numbers

              1      
    1    2.0000
    2    1.9987
    3    1.9811
    4    1.9758
    5    1.9661
    6    0.0350
    7    0.0250
    8    0.0185


          Number of sigma calls:       15
                       o<<<<< (aa):             0.00
                       o<<<<< (bb):             0.01
                       o<<<<< (ab):             0.08
                       o<<<<< (total)           0.09
                       o<<<<< (aa) ff           0.00
                       o<<<<< (aa) gop          0.00
                       o<<<<< (aa) dot          0.00
                       o<<<<< (ab) str          0.00
                       o<<<<< (ab) gath         0.00
                       o<<<<< (ab) dotab        0.00
                       o<<<<< (ab) scat         0.00
                       o<<<<< (ab) sync         0.00
                       o<<<<< Density           0.01
                       o<<<<< Density one       0.00
                       o<<<<< Density two       0.00
                       o<<<<< Density ab        0.01
                       o<<<<< Spin adapt        0.28
                       o<<<<< Symm adapt        0.00

                       o<<<<< (ab) max sync:      0.00


       Final MCSCF results 
       ------------------- 

       Total MCSCF energy =    -76.131425139948
            Gradient norm =      2.3D-05

    CPU time for solution =      5.3s
   Wall time for solution =      8.7s



                        Analysis of MCSCF natural orbitals
                        ----------------------------------

 Vector    1  Occ=1.999989D+00  E=-2.055482D+01  Symmetry=a
              MO Center= -9.1D-02, -7.7D-02, -5.6D-11, r^2= 1.6D-02
   Bfn.  Coefficient  Atom+Function         Bfn.  Coefficient  Atom+Function  
  ----- ------------  ---------------      ----- ------------  ---------------
     1      0.972635  1 O  s          

 Vector    2  Occ=1.998656D+00  E=-1.314705D+00  Symmetry=a
              MO Center= -2.9D-01, -2.1D-01, -5.0D-08, r^2= 4.2D-01
   Bfn.  Coefficient  Atom+Function         Bfn.  Coefficient  Atom+Function  
  ----- ------------  ---------------      ----- ------------  ---------------
     2      0.521350  1 O  s                  4      0.392784  1 O  s          

 Vector    3  Occ=1.981081D+00  E=-7.024791D-01  Symmetry=a
              MO Center= -6.3D-02, -6.2D-02, -1.3D-07, r^2= 6.5D-01
   Bfn.  Coefficient  Atom+Function         Bfn.  Coefficient  Atom+Function  
  ----- ------------  ---------------      ----- ------------  ---------------
    10      0.431704  1 O  pz                13      0.392972  1 O  pz         
     7      0.360291  1 O  pz         

 Vector    4  Occ=1.975754D+00  E=-5.697116D-01  Symmetry=a
              MO Center=  3.4D-01, -1.9D-01, -3.5D-08, r^2= 6.0D-01
   Bfn.  Coefficient  Atom+Function         Bfn.  Coefficient  Atom+Function  
  ----- ------------  ---------------      ----- ------------  ---------------
     8      0.343300  1 O  px                 5      0.285708  1 O  px         
    46      0.263402  3 H  s                 11      0.205660  1 O  px         
    45      0.183600  3 H  s          

 Vector    5  Occ=1.966137D+00  E=-5.198173D-01  Symmetry=a
              MO Center= -4.5D-02,  4.2D-01, -2.9D-08, r^2= 7.0D-01
   Bfn.  Coefficient  Atom+Function         Bfn.  Coefficient  Atom+Function  
  ----- ------------  ---------------      ----- ------------  ---------------
     9      0.339987  1 O  py                 6      0.273985  1 O  py         
    32      0.266259  2 H  s                 12      0.198731  1 O  py         
    31      0.167535  2 H  s          

 Vector    6  Occ=3.495517D-02  E=-3.220344D-02  Symmetry=a
              MO Center= -3.8D-02,  6.1D-01, -3.6D-08, r^2= 7.0D-01
   Bfn.  Coefficient  Atom+Function         Bfn.  Coefficient  Atom+Function  
  ----- ------------  ---------------      ----- ------------  ---------------
    32      0.598582  2 H  s                  6     -0.475461  1 O  py         
     9     -0.464461  1 O  py                 2     -0.276549  1 O  s          
    31      0.269787  2 H  s          

 Vector    7  Occ=2.497192D-02  E=-2.577384D-02  Symmetry=a
              MO Center=  5.0D-01, -2.4D-01, -5.7D-08, r^2= 6.6D-01
   Bfn.  Coefficient  Atom+Function         Bfn.  Coefficient  Atom+Function  
  ----- ------------  ---------------      ----- ------------  ---------------
    46      0.656248  3 H  s                  5     -0.518633  1 O  px         
     8     -0.432384  1 O  px                45      0.295125  3 H  s          
     2     -0.280061  1 O  s                  4     -0.194197  1 O  s          

 Vector    8  Occ=1.845698D-02  E=-1.585419D-02  Symmetry=a
              MO Center= -4.8D-03, -2.0D-02, -3.8D-08, r^2= 1.2D+00
   Bfn.  Coefficient  Atom+Function         Bfn.  Coefficient  Atom+Function  
  ----- ------------  ---------------      ----- ------------  ---------------
    13      0.800404  1 O  pz                 7     -0.632043  1 O  pz         
    10     -0.316789  1 O  pz         

 Vector    9  Occ=0.000000D+00  E= 3.065753D-01  Symmetry=a
              MO Center=  4.9D-01,  6.3D-02,  1.2D-07, r^2= 4.7D+00
   Bfn.  Coefficient  Atom+Function         Bfn.  Coefficient  Atom+Function  
  ----- ------------  ---------------      ----- ------------  ---------------
     4      1.881529  1 O  s                 47     -1.384154  3 H  s          
    33     -0.926404  2 H  s                 11      0.705753  1 O  px         
    51      0.461179  3 H  px                38      0.302083  2 H  py         
    12      0.241723  1 O  py                52     -0.188964  3 H  py         
    32      0.165082  2 H  s                 46     -0.165086  3 H  s          

 Vector   10  Occ=0.000000D+00  E= 3.354709D-01  Symmetry=a
              MO Center=  3.7D-01,  6.3D-01, -1.8D-08, r^2= 5.5D+00
   Bfn.  Coefficient  Atom+Function         Bfn.  Coefficient  Atom+Function  
  ----- ------------  ---------------      ----- ------------  ---------------
    33      1.973495  2 H  s                 47     -1.790043  3 H  s          
    32     -0.602792  2 H  s                 12     -0.562998  1 O  py         
    11      0.395527  1 O  px                46      0.319579  3 H  s          
    51      0.271871  3 H  px                38     -0.246290  2 H  py         

 Vector   11  Occ=0.000000D+00  E= 6.111285D-01  Symmetry=a
              MO Center= -5.4D-02,  2.9D-01,  1.3D-07, r^2= 2.0D+00
   Bfn.  Coefficient  Atom+Function         Bfn.  Coefficient  Atom+Function  
  ----- ------------  ---------------      ----- ------------  ---------------
    46     -2.513243  3 H  s                  4      2.426547  1 O  s          
    11      1.794031  1 O  px                32     -0.997933  2 H  s          
    51      0.693218  3 H  px                38      0.271670  2 H  py         
    37      0.260246  2 H  px                33      0.223274  2 H  s          
     9     -0.158414  1 O  py                21     -0.159027  1 O  d  0       

 Vector   12  Occ=0.000000D+00  E= 6.855901D-01  Symmetry=a
              MO Center= -9.5D-02, -3.8D-01, -5.3D-08, r^2= 2.4D+00
   Bfn.  Coefficient  Atom+Function         Bfn.  Coefficient  Atom+Function  
  ----- ------------  ---------------      ----- ------------  ---------------
    12      2.337624  1 O  py                32     -1.722276  2 H  s          
    46      1.332992  3 H  s                 11     -1.165723  1 O  px         
    47      0.760943  3 H  s                 33     -0.680470  2 H  s          
    38      0.647727  2 H  py                51     -0.398023  3 H  px         
    52      0.306700  3 H  py                23     -0.290229  1 O  d  2       

 Vector   13  Occ=0.000000D+00  E= 8.169701D-01  Symmetry=a
              MO Center= -2.2D-01, -8.8D-02, -4.7D-08, r^2= 2.3D+00
   Bfn.  Coefficient  Atom+Function         Bfn.  Coefficient  Atom+Function  
  ----- ------------  ---------------      ----- ------------  ---------------
     4      1.822139  1 O  s                 11      1.682157  1 O  px         
    46     -1.648993  3 H  s                 32     -1.229057  2 H  s          
    12      1.075533  1 O  py                52     -1.011803  3 H  py         
    37     -0.845001  2 H  px                38      0.491639  2 H  py         
     2      0.191869  1 O  s                 51      0.187993  3 H  px         

 Vector   14  Occ=0.000000D+00  E= 8.288037D-01  Symmetry=a
              MO Center=  2.9D-01,  3.9D-01, -1.3D-08, r^2= 1.8D+00
   Bfn.  Coefficient  Atom+Function         Bfn.  Coefficient  Atom+Function  
  ----- ------------  ---------------      ----- ------------  ---------------
    39      0.840180  2 H  pz                53     -0.751147  3 H  pz         

 Vector   15  Occ=0.000000D+00  E= 9.719083D-01  Symmetry=a
              MO Center=  1.5D-01,  3.5D-02, -3.1D-07, r^2= 2.1D+00
   Bfn.  Coefficient  Atom+Function         Bfn.  Coefficient  Atom+Function  
  ----- ------------  ---------------      ----- ------------  ---------------
    13      1.203658  1 O  pz                53     -1.052153  3 H  pz         
    39     -0.854086  2 H  pz         

 Vector   16  Occ=0.000000D+00  E= 1.124214D+00  Symmetry=a
              MO Center=  2.6D-01,  1.5D-01,  1.3D-08, r^2= 2.3D+00
   Bfn.  Coefficient  Atom+Function         Bfn.  Coefficient  Atom+Function  
  ----- ------------  ---------------      ----- ------------  ---------------
     4      2.124459  1 O  s                 46     -2.078582  3 H  s          
    11      1.439344  1 O  px                12     -1.286540  1 O  py         
    51      1.084121  3 H  px                37     -1.015895  2 H  px         
    52      0.669424  3 H  py                47     -0.394703  3 H  s          
    32      0.337787  2 H  s                  8      0.301316  1 O  px         

 Vector   17  Occ=0.000000D+00  E= 1.185209D+00  Symmetry=a
              MO Center= -6.7D-02,  5.7D-02,  2.9D-07, r^2= 1.9D+00
   Bfn.  Coefficient  Atom+Function         Bfn.  Coefficient  Atom+Function  
  ----- ------------  ---------------      ----- ------------  ---------------
     4      5.474731  1 O  s                 46     -2.648365  3 H  s          
    32     -1.673136  2 H  s                 51      1.237707  3 H  px         
    11      1.166313  1 O  px                 2     -1.046060  1 O  s          
    52     -1.041851  3 H  py                 8      0.845691  1 O  px         
    12      0.780937  1 O  py                47     -0.727280  3 H  s          

 Vector   18  Occ=0.000000D+00  E= 1.266318D+00  Symmetry=a
              MO Center= -5.0D-03,  1.1D+00,  5.8D-09, r^2= 1.7D+00
   Bfn.  Coefficient  Atom+Function         Bfn.  Coefficient  Atom+Function  
  ----- ------------  ---------------      ----- ------------  ---------------
     4      3.549997  1 O  s                 38      2.290921  2 H  py         
    32     -1.523576  2 H  s                 46     -1.153209  3 H  s          
    12      1.014392  1 O  py                33     -0.894882  2 H  s          
    51      0.856334  3 H  px                 9      0.525902  1 O  py         
    11      0.387411  1 O  px                52     -0.382077  3 H  py         


 Wrote Lagrangian and 1- and 2-particle density matrices to ./H2O.mcpdm


     Multipole analysis of the density
     ---------------------------------

     L   x y z        total        nuclear
     -   - - -        -----        -------
     0   0 0 0     -0.000000     10.000000

     1   1 0 0      0.564367     -0.000000
     1   0 1 0      0.431457      0.000000
     1   0 0 1      0.000001      0.000000

     2   2 0 0     -4.235262      2.679864
     2   1 1 0     -0.831945     -1.371517
     2   1 0 1      0.000001      0.000000
     2   0 2 0     -3.317548      4.662160
     2   0 1 1      0.000000      0.000000
     2   0 0 2     -5.632193      0.000000


  Mulliken analysis of the total density
  --------------------------------------

    Atom       Charge   Shell Charges
 -----------   ------   -------------------------------------------------------
    1 O    8     8.49   1.95  1.01  0.24  0.62  1.26  2.07  1.33  0.00  0.02  0.00
    2 H    1     0.75   0.20  0.40  0.08  0.01  0.05  0.00
    3 H    1     0.76   0.25  0.38  0.05  0.02  0.06  0.01

    Mulliken analysis of the active space density
    ---------------------------------------------

    Atom       Charge   Shell Charges
 -----------   ------   -------------------------------------------------------
    1 O    8     8.49   1.95  1.01  0.24  0.62  1.26  2.07  1.33  0.00  0.02  0.00
    2 H    1     0.75   0.20  0.40  0.08  0.01  0.05  0.00
    3 H    1     0.76   0.25  0.38  0.05  0.02  0.06  0.01

 Parallel integral file used      16 records with       0 large values


 Task  times  cpu:        5.3s     wall:        8.7s


                                NWChem Input Module
                                -------------------


                                 NWChem SCF Module
                                 -----------------


                                        H2O



  ao basis        = "ao basis"
  functions       =    58
  atoms           =     3
  closed shells   =     5
  open shells     =     0
  charge          =   0.00
  wavefunction    = RHF 
  input vectors   = ./h2o.mos
  output vectors  = ./h2o-trash.mos
  use symmetry    = F
  symmetry adapt  = F


 Summary of "ao basis" -> "ao basis" (spherical)
 ------------------------------------------------------------------------------
       Tag                 Description            Shells   Functions and Types
 ---------------- ------------------------------  ------  ---------------------
 O                          cc-pVTZ                 10       30   4s3p2d1f
 H                          cc-pVTZ                  6       14   3s2p1d



 Forming initial guess at       8.7s


 Loading old vectors from job with title :

H2O


 Starting SCF solution at       8.7s



 ----------------------------------------------
         Quadratically convergent ROHF

 Convergence threshold     :          1.000E-04
 Maximum no. of iterations :           30
 Final Fock-matrix accuracy:          1.000E-07
 ----------------------------------------------


 Integral file          = ./H2O.aoints.0
 Record size in doubles =  65536        No. of integs per rec  =  43688
 Max. records in memory =     49        Max. records in file   = 252556
 No. of bits per label  =      8        No. of bits per value  =     64


 #quartets = 3.213D+04 #integrals = 6.608D+05 #direct =  0.0% #cached =100.0%



       Final RHF  results 
       ------------------ 

         Total SCF energy =    -76.029669678863
      One-electron energy =   -121.726637435227
      Two-electron energy =     37.259888543914
 Nuclear repulsion energy =      8.437079212450

        Time for solution =      0.1s


             Final eigenvalues
             -----------------

              1      
    1  -20.5548
    2   -1.3147
    3   -0.7025
    4   -0.5697
    5   -0.5198
    6   -0.0322
    7   -0.0258
    8   -0.0159
    9    0.3066
   10    0.3355
   11    0.6111
   12    0.6856
   13    0.8170
   14    0.8288
   15    0.9719

                       ROHF Final Molecular Orbital Analysis
                       -------------------------------------

 Vector    2  Occ=2.000000D+00  E=-1.314705D+00
              MO Center= -2.9D-01, -2.1D-01, -5.0D-08, r^2= 4.2D-01
   Bfn.  Coefficient  Atom+Function         Bfn.  Coefficient  Atom+Function  
  ----- ------------  ---------------      ----- ------------  ---------------
     2      0.521350  1 O  s                  4      0.392784  1 O  s          

 Vector    3  Occ=2.000000D+00  E=-7.024791D-01
              MO Center= -6.3D-02, -6.2D-02, -1.3D-07, r^2= 6.5D-01
   Bfn.  Coefficient  Atom+Function         Bfn.  Coefficient  Atom+Function  
  ----- ------------  ---------------      ----- ------------  ---------------
    10      0.431704  1 O  pz                13      0.392972  1 O  pz         
     7      0.360291  1 O  pz         

 Vector    4  Occ=2.000000D+00  E=-5.697116D-01
              MO Center=  3.4D-01, -1.9D-01, -3.5D-08, r^2= 6.0D-01
   Bfn.  Coefficient  Atom+Function         Bfn.  Coefficient  Atom+Function  
  ----- ------------  ---------------      ----- ------------  ---------------
     8      0.343300  1 O  px                 5      0.285708  1 O  px         
    46      0.263402  3 H  s                 11      0.205660  1 O  px         
    45      0.183600  3 H  s          

 Vector    5  Occ=2.000000D+00  E=-5.198173D-01
              MO Center= -4.5D-02,  4.2D-01, -2.9D-08, r^2= 7.0D-01
   Bfn.  Coefficient  Atom+Function         Bfn.  Coefficient  Atom+Function  
  ----- ------------  ---------------      ----- ------------  ---------------
     9      0.339987  1 O  py                 6      0.273985  1 O  py         
    32      0.266259  2 H  s                 12      0.198731  1 O  py         
    31      0.167535  2 H  s          

 Vector    6  Occ=0.000000D+00  E=-3.220344D-02
              MO Center= -3.8D-02,  6.1D-01, -3.6D-08, r^2= 7.0D-01
   Bfn.  Coefficient  Atom+Function         Bfn.  Coefficient  Atom+Function  
  ----- ------------  ---------------      ----- ------------  ---------------
    32      0.598582  2 H  s                  6     -0.475461  1 O  py         
     9     -0.464461  1 O  py                 2     -0.276549  1 O  s          
    31      0.269787  2 H  s          

 Vector    7  Occ=0.000000D+00  E=-2.577384D-02
              MO Center=  5.0D-01, -2.4D-01, -5.7D-08, r^2= 6.6D-01
   Bfn.  Coefficient  Atom+Function         Bfn.  Coefficient  Atom+Function  
  ----- ------------  ---------------      ----- ------------  ---------------
    46      0.656248  3 H  s                  5     -0.518633  1 O  px         
     8     -0.432384  1 O  px                45      0.295125  3 H  s          
     2     -0.280061  1 O  s                  4     -0.194197  1 O  s          

 Vector    8  Occ=0.000000D+00  E=-1.585419D-02
              MO Center= -4.8D-03, -2.0D-02, -3.8D-08, r^2= 1.2D+00
   Bfn.  Coefficient  Atom+Function         Bfn.  Coefficient  Atom+Function  
  ----- ------------  ---------------      ----- ------------  ---------------
    13      0.800404  1 O  pz                 7     -0.632043  1 O  pz         
    10     -0.316789  1 O  pz         

 Vector    9  Occ=0.000000D+00  E= 3.065753D-01
              MO Center=  4.9D-01,  6.3D-02,  1.2D-07, r^2= 4.7D+00
   Bfn.  Coefficient  Atom+Function         Bfn.  Coefficient  Atom+Function  
  ----- ------------  ---------------      ----- ------------  ---------------
     4      1.881529  1 O  s                 47     -1.384154  3 H  s          
    33     -0.926404  2 H  s                 11      0.705753  1 O  px         
    51      0.461179  3 H  px                38      0.302083  2 H  py         
    12      0.241723  1 O  py                52     -0.188964  3 H  py         
    32      0.165082  2 H  s                 46     -0.165086  3 H  s          

 Vector   10  Occ=0.000000D+00  E= 3.354709D-01
              MO Center=  3.7D-01,  6.3D-01, -1.8D-08, r^2= 5.5D+00
   Bfn.  Coefficient  Atom+Function         Bfn.  Coefficient  Atom+Function  
  ----- ------------  ---------------      ----- ------------  ---------------
    33      1.973495  2 H  s                 47     -1.790043  3 H  s          
    32     -0.602792  2 H  s                 12     -0.562998  1 O  py         
    11      0.395527  1 O  px                46      0.319579  3 H  s          
    51      0.271871  3 H  px                38     -0.246290  2 H  py         

 Vector   11  Occ=0.000000D+00  E= 6.111285D-01
              MO Center= -5.4D-02,  2.9D-01,  1.3D-07, r^2= 2.0D+00
   Bfn.  Coefficient  Atom+Function         Bfn.  Coefficient  Atom+Function  
  ----- ------------  ---------------      ----- ------------  ---------------
    46     -2.513243  3 H  s                  4      2.426547  1 O  s          
    11      1.794031  1 O  px                32     -0.997933  2 H  s          
    51      0.693218  3 H  px                38      0.271670  2 H  py         
    37      0.260246  2 H  px                33      0.223274  2 H  s          
     9     -0.158414  1 O  py                21     -0.159027  1 O  d  0       

 Vector   12  Occ=0.000000D+00  E= 6.855901D-01
              MO Center= -9.5D-02, -3.8D-01, -5.3D-08, r^2= 2.4D+00
   Bfn.  Coefficient  Atom+Function         Bfn.  Coefficient  Atom+Function  
  ----- ------------  ---------------      ----- ------------  ---------------
    12      2.337624  1 O  py                32     -1.722276  2 H  s          
    46      1.332992  3 H  s                 11     -1.165723  1 O  px         
    47      0.760943  3 H  s                 33     -0.680470  2 H  s          
    38      0.647727  2 H  py                51     -0.398023  3 H  px         
    52      0.306700  3 H  py                23     -0.290229  1 O  d  2       

 Vector   13  Occ=0.000000D+00  E= 8.169701D-01
              MO Center= -2.2D-01, -8.8D-02, -4.7D-08, r^2= 2.3D+00
   Bfn.  Coefficient  Atom+Function         Bfn.  Coefficient  Atom+Function  
  ----- ------------  ---------------      ----- ------------  ---------------
     4      1.822139  1 O  s                 11      1.682157  1 O  px         
    46     -1.648993  3 H  s                 32     -1.229057  2 H  s          
    12      1.075533  1 O  py                52     -1.011803  3 H  py         
    37     -0.845001  2 H  px                38      0.491639  2 H  py         
     2      0.191869  1 O  s                 51      0.187993  3 H  px         

 Vector   14  Occ=0.000000D+00  E= 8.288037D-01
              MO Center=  2.9D-01,  3.9D-01, -1.3D-08, r^2= 1.8D+00
   Bfn.  Coefficient  Atom+Function         Bfn.  Coefficient  Atom+Function  
  ----- ------------  ---------------      ----- ------------  ---------------
    39      0.840180  2 H  pz                53     -0.751147  3 H  pz         

 Vector   15  Occ=0.000000D+00  E= 9.719083D-01
              MO Center=  1.5D-01,  3.5D-02, -3.1D-07, r^2= 2.1D+00
   Bfn.  Coefficient  Atom+Function         Bfn.  Coefficient  Atom+Function  
  ----- ------------  ---------------      ----- ------------  ---------------
    13      1.203658  1 O  pz                53     -1.052153  3 H  pz         
    39     -0.854086  2 H  pz         


 center of mass
 --------------
 x =  -0.07599894 y =  -0.06439683 z =   0.00000000

 moments of inertia (a.u.)
 ------------------
           4.793536267241           1.270257626361           0.000000000000
           1.270257626361           2.833002082974           0.000000000000
           0.000000000000           0.000000000000           7.626538350215

  Mulliken analysis of the total density
  --------------------------------------

    Atom       Charge   Shell Charges
 -----------   ------   -------------------------------------------------------
    1 O    8     8.50   1.95  1.01  0.23  0.62  1.25  2.08  1.34  0.00  0.02  0.00
    2 H    1     0.74   0.20  0.39  0.08  0.01  0.05  0.00
    3 H    1     0.75   0.25  0.38  0.04  0.02  0.06  0.01

       Multipole analysis of the density wrt the origin
       ------------------------------------------------

     L   x y z        total         open         nuclear
     -   - - -        -----         ----         -------
     0   0 0 0     -0.000000      0.000000     10.000000

     1   1 0 0      0.575706      0.000000     -0.000000
     1   0 1 0      0.444298      0.000000      0.000000
     1   0 0 1      0.000001      0.000000      0.000000

     2   2 0 0     -4.212196      0.000000      2.679864
     2   1 1 0     -0.840891      0.000000     -1.371517
     2   1 0 1      0.000001      0.000000      0.000000
     2   0 2 0     -3.275990      0.000000      4.662160
     2   0 1 1      0.000000      0.000000      0.000000
     2   0 0 2     -5.614353      0.000000      0.000000


 Parallel integral file used      16 records with       0 large values

                   NWChem Extensible Many-Electron Theory Module
                   ---------------------------------------------

              ======================================================
                   This portion of the program was automatically
                  generated by a Tensor Contraction Engine (TCE).
                  The development of this portion of the program
                 and TCE was supported by US Department of Energy,
                Office of Science, Office of Basic Energy Science.
                      TCE is a product of Battelle and PNNL.
              Please cite: S.Hirata, J.Phys.Chem.A 107, 9887 (2003).
              ======================================================

                                        H2O


            General Information
            -------------------
      Number of processors :     1
         Wavefunction type : Restricted Hartree-Fock
          No. of electrons :    10
           Alpha electrons :     5
            Beta electrons :     5
           No. of orbitals :   116
            Alpha orbitals :    58
             Beta orbitals :    58
        Alpha frozen cores :     0
         Beta frozen cores :     0
     Alpha frozen virtuals :     0
      Beta frozen virtuals :     0
         Spin multiplicity : singlet 
    Number of AO functions :    58
       Number of AO shells :    22
        Use of symmetry is : off
      Symmetry adaption is : off
         Schwarz screening : 0.10D-09

          Correlation Information
          -----------------------
          Calculation type : Coupled-cluster singles & doubles                           
   Perturbative correction : none                                                        
            Max iterations :      100
        Residual threshold : 0.10D-06
     T(0) DIIS level shift : 0.00D+00
     L(0) DIIS level shift : 0.00D+00
     T(1) DIIS level shift : 0.00D+00
     L(1) DIIS level shift : 0.00D+00
     T(R) DIIS level shift : 0.00D+00
     T(I) DIIS level shift : 0.00D+00
   CC-T/L Amplitude update :  5-th order DIIS
                I/O scheme : Global Array Library
        L-threshold :  0.10D-06
        EOM-threshold :  0.10D-06
 no EOMCCSD initial starts read in
 TCE RESTART OPTIONS
 READ_INT:   F
 WRITE_INT:  F
 READ_TA:    F
 WRITE_TA:   F
 READ_XA:    F
 WRITE_XA:   F
 READ_IN3:   F
 WRITE_IN3:  F
 SLICE:      F
 D4D5:       F
 quantumc:   F
 qrotation:  F
 pwtce:      F
 qducc:      T
 nacto:                         0
 nrotv:                         0
 nrot:                          0

            Memory Information
            ------------------
          Available GA space size is    1610609372 doubles
          Available MA space size is    1610609772 doubles

 Maximum block size        32 doubles

 tile_dim =     27

 Block   Spin    Irrep     Size     Offset   Alpha
 -------------------------------------------------
   1    alpha     a      5 doubles       0       1
   2    beta      a      5 doubles       5       1
   3    alpha     a     26 doubles      10       3
   4    alpha     a     27 doubles      36       4
   5    beta      a     26 doubles      63       3
   6    beta      a     27 doubles      89       4

 Global array virtual files algorithm will be used

 Parallel file system coherency ......... OK

 Integral file          = ./H2O.aoints.0
 Record size in doubles =  65536        No. of integs per rec  =  43688
 Max. records in memory =     49        Max. records in file   = 252556
 No. of bits per label  =      8        No. of bits per value  =     64


 #quartets = 3.213D+04 #integrals = 6.608D+05 #direct =  0.0% #cached =100.0%


 Fock matrix recomputed
 1-e file size   =             3364
 1-e file name   = ./H2O.f1
 Cpu & wall time / sec            0.1            0.1
 4-electron integrals stored in orbital form

 v2    file size   =          3631290
 4-index algorithm nr.  13 is used
 imaxsize =       30
 imaxsize ichop =        0
 Cpu & wall time / sec            1.7            1.7
 T1-number-of-tasks                    2

 t1 file size   =              265
 t1 file name   = ./H2O.t1
 t1 file handle =       -998
 T2-number-of-boxes                    7

 t2 file size   =           122900
 t2 file name   = ./H2O.t2
 t2 file handle =       -996
CCSD iterations
 ---------------------------------------------------------
 Iter          Residuum       Correlation     Cpu    Wall 
 ---------------------------------------------------------
NEW TASK SCHEDULING
CCSD_T1_NTS --- OK
CCSD_T2_NTS --- OK
    1   1.1022623191535  -0.4521191260492     0.2     0.2
    2   1.9725313014330   0.0405569066534     0.2     0.2
    3   3.7127996497709  -0.8885582415274     0.2     0.2
    4   7.5184085798773   0.8214483582086     0.2     0.2
    5   9.8548902129538  -2.2292455084617     0.2     0.2
 MICROCYCLE DIIS UPDATE:                    5                    5
    6   0.0689094572047  -0.2886536842789     0.2     0.2
    7   0.0880335090726  -0.2759250941232     0.2     0.2
    8   0.1581982764984  -0.2996262867671     0.2     0.2
    9   0.2947216303694  -0.2475243057772     0.2     0.2
   10   0.5894232263111  -0.2743791051462     0.2     0.2
 MICROCYCLE DIIS UPDATE:                   10                    5
   11   0.0062805620716  -0.2868879038681     0.2     0.2
   12   0.0057249616223  -0.2875627623349     0.2     0.2
   13   0.0111434255735  -0.2864674484014     0.2     0.2
   14   0.0236652716338  -0.2885713805684     0.2     0.2
   15   0.0510986627550  -0.2847814934885     0.2     0.2
 MICROCYCLE DIIS UPDATE:                   15                    5
   16   0.0003481891381  -0.2872576955154     0.2     0.2
   17   0.0002957689596  -0.2872171221909     0.2     0.2
   18   0.0005111430244  -0.2872945682650     0.2     0.2
   19   0.0010336619683  -0.2871569451351     0.2     0.2
   20   0.0021783254735  -0.2874131247054     0.2     0.3
 MICROCYCLE DIIS UPDATE:                   20                    5
   21   0.0000293548609  -0.2872459616354     0.2     0.3
   22   0.0000299166847  -0.2872486017441     0.2     0.2
   23   0.0000559400671  -0.2872429437338     0.2     0.2
   24   0.0001176685512  -0.2872540288130     0.2     0.2
   25   0.0002533470928  -0.2872332950529     0.2     0.2
 MICROCYCLE DIIS UPDATE:                   25                    5
   26   0.0000042747587  -0.2872470774216     0.2     0.2
   27   0.0000041606961  -0.2872464162757     0.2     0.2
   28   0.0000073765458  -0.2872476010922     0.2     0.2
   29   0.0000150035249  -0.2872454622311     0.2     0.2
   30   0.0000316645861  -0.2872494169846     0.2     0.2
 MICROCYCLE DIIS UPDATE:                   30                    5
   31   0.0000005867225  -0.2872468296757     0.2     0.2
   32   0.0000005907586  -0.2872468752240     0.2     0.2
   33   0.0000011301284  -0.2872467702555     0.2     0.2
   34   0.0000023986316  -0.2872469719237     0.2     0.2
   35   0.0000052059904  -0.2872465987523     0.2     0.2
 MICROCYCLE DIIS UPDATE:                   35                    5
   36   0.0000000943361  -0.2872468463084     0.2     0.2
 -----------------------------------------------------------------
 Iterations converged
 CCSD correlation energy / hartree =        -0.287246846308441
 CCSD total energy / hartree       =       -76.316916525171251

 Singles contributions

 Doubles contributions
     6a   (alpha)     7a   (alpha) ---     4a   (alpha)     5a   (alpha)        0.0211938486
     6a   (alpha)     7a   (alpha) ---     5a   (alpha)     4a   (alpha)       -0.0211938486
     6a   (alpha)     8a   (alpha) ---     3a   (alpha)     5a   (alpha)        0.0274162905
     6a   (alpha)     8a   (alpha) ---     5a   (alpha)     3a   (alpha)       -0.0274162905
     7a   (alpha)     6a   (alpha) ---     4a   (alpha)     5a   (alpha)       -0.0211938486
     7a   (alpha)     6a   (alpha) ---     5a   (alpha)     4a   (alpha)        0.0211938486
     7a   (alpha)     8a   (alpha) ---     3a   (alpha)     4a   (alpha)        0.0262047017
     7a   (alpha)     8a   (alpha) ---     4a   (alpha)     3a   (alpha)       -0.0262047017
     8a   (alpha)     6a   (alpha) ---     3a   (alpha)     5a   (alpha)       -0.0274162905
     8a   (alpha)     6a   (alpha) ---     5a   (alpha)     3a   (alpha)        0.0274162905
     8a   (alpha)     7a   (alpha) ---     3a   (alpha)     4a   (alpha)       -0.0262047017
     8a   (alpha)     7a   (alpha) ---     4a   (alpha)     3a   (alpha)        0.0262047017
     6a   (alpha)     6a   (beta ) ---     5a   (alpha)     5a   (beta )       -0.1037406524
     6a   (alpha)     7a   (beta ) ---     5a   (alpha)     4a   (beta )       -0.0322003863
     6a   (alpha)     8a   (beta ) ---     5a   (alpha)     3a   (beta )       -0.0379970758
     7a   (alpha)     6a   (beta ) ---     4a   (alpha)     5a   (beta )       -0.0322003863
     7a   (alpha)     7a   (beta ) ---     4a   (alpha)     4a   (beta )       -0.0794696206
     7a   (alpha)     8a   (beta ) ---     4a   (alpha)     3a   (beta )       -0.0360665767
     8a   (alpha)     6a   (beta ) ---     3a   (alpha)     5a   (beta )       -0.0379970758
     8a   (alpha)     7a   (beta ) ---     3a   (alpha)     4a   (beta )       -0.0360665767
     8a   (alpha)     8a   (beta ) ---     3a   (alpha)     3a   (beta )       -0.0525139893
     8a   (alpha)    17a   (beta ) ---     3a   (alpha)     2a   (beta )       -0.0206519700
    17a   (alpha)     8a   (beta ) ---     2a   (alpha)     3a   (beta )       -0.0206519700
 Ground state specification:
 exp(T)|Ref>~(1+T)|Ref>
 ------- a(p)+/a(q) strings ----------

 singles norm

 doubles norm

 Reference string
  0.99466198635595882      :(1a)+ (2a)+ (3a)+ (4a)+ (5a)+ (1b)+ (2b)+ (3b)+ (4b)+ (5b)+ |0>

 Singles strings

 Doubles strings
 -0.10318688336420731      :(6a)+ (6b)+ (5b)  (5a)  (1a)+ (2a)+ (3a)+ (4a)+ (5a)+ (1b)+ (2b)+ (3b)+ (4b)+ (5b)+ |0>
 -------------------------------------
 enrep_tce =    8.4370792124501133     
  EHF(total)         =       -76.02966968
  Shift (HFtot-HFA)  =         0.00000000
 ALL OCCUPIED ORBITALS ARE ACTIVE IN DUCC --> NO SHIFT
 Number of active orbitals                    8
 Number of active alpha electrons                    5
 Number of active beta electrons                    5
  nos                    10
  nvs                   106
 noas                     5
 nobs                     5
 nvas                    53
 nvbs                    53
 nactv                     3
 DUCC MODEL =                     6
 NONHF =  T
 F-T1 correlation    =   -5.5172426442668354E-005
 V-T1-T1 correlation =    1.3494716714137669E-005
 V-T2 correlation    =  -0.28720516859896694     
 Total correlation   =  -0.28724684630869546     
 F-T1(Ext) correlation         =   -5.0726485969049583E-005
 V-T1(Ext)-T1(Ext) correlation =    2.0923758742357407E-006
 V-T2(Ext) correlation         =  -0.19359375152001229     
 Total Ext correlation         =  -0.19364238563010711     
1-BODY TIME =  264.335 SECONDS.
  HHHH TIME =  258.071 SECONDS.
  PPPP TIME =    0.682 SECONDS.
  HHHP TIME =   18.061 SECONDS.
  PPPH TIME =    1.565 SECONDS.
  HPHP TIME =   17.789 SECONDS.
  HHPP TIME =    7.816 SECONDS.
 ONE-BODY UNITARY CHECK
 TWO-BODY UNITARY CHECK
                    1                    1                    1                    2   2.2113351009687575E-011
                    1                    1                    1                    4  -2.3723282768363661E-011
                    1                    1                    1                    5  -2.8977156237864560E-011
                    1                    1                    2                    1  -2.2113352716788181E-011
                    1                    1                    2                    4  -1.9848707884462513E-011
                    1                    1                    2                    5   4.9384979967987982E-012
                    1                    1                    4                    1   2.3723279321568430E-011
                    1                    1                    4                    2   1.9848707800790712E-011
                    1                    1                    4                    5  -1.1586920603928828E-011
                    1                    1                    5                    1   2.8977154437021953E-011
                    1                    1                    5                    2  -4.9384979649308379E-012
                    1                    1                    5                    4   1.1586920603961192E-011
                    1                    2                    1                    1  -2.2113351009687575E-011
                    1                    2                    1                    4   1.9659850136743984E-011
                    1                    2                    1                    5   4.7710793649180516E-011
                    1                    2                    2                    1   1.8572143822837006E-010
                    1                    2                    2                    2  -4.1214126834141049E-010
                    1                    2                    2                    4  -9.8111085228280714E-011
                    1                    2                    2                    5  -2.7661754310737141E-010
                    1                    2                    3                    3  -1.5754725034115760E-011
                    1                    2                    4                    1  -9.9780140747074419E-011
                    1                    2                    4                    2   4.3914641888187500E-010
                    1                    2                    4                    4  -9.5224636714148911E-011
                    1                    2                    4                    5  -6.2579151448749915E-011
                    1                    2                    5                    1  -8.6164539045419097E-011
                    1                    2                    5                    2   4.9102139194900918E-010
                    1                    2                    5                    4  -1.7435889852827598E-010
                    1                    2                    5                    5  -7.0013710297503774E-011
                    1                    3                    2                    3  -5.9544104022424271E-010
                    1                    3                    3                    1   4.0596304096141012E-010
                    1                    3                    3                    2  -9.5396033260308766E-010
                    1                    3                    3                    4  -4.2869190402389235E-010
                    1                    3                    3                    5  -5.6303195612728008E-010
                    1                    3                    4                    3   1.2143541753759091E-009
                    1                    3                    5                    3   1.3071510696766042E-009
                    1                    4                    1                    1   2.3723282768363661E-011
                    1                    4                    1                    2  -1.9659850136743984E-011
                    1                    4                    2                    1  -9.7357738190750887E-011
                    1                    4                    2                    2   1.6841133385147594E-010
                    1                    4                    2                    4  -2.0011583102413910E-010
                    1                    4                    2                    5   2.4529346560669615E-010
                    1                    4                    3                    3   3.9031213221014532E-011
                    1                    4                    4                    1   3.6390002122743681E-011
                    1                    4                    4                    2   1.6099884750028770E-010
                    1                    4                    4                    4  -7.8366121572981664E-011
                    1                    4                    4                    5  -1.0128100216139080E-009
                    1                    4                    5                    1   4.0478488616546571E-011
                    1                    4                    5                    2  -5.9581074958719310E-010
                    1                    4                    5                    4   1.5936961941104277E-009
                    1                    4                    5                    5   1.6770769509646529E-010
                    1                    5                    1                    1   2.8977156237864560E-011
                    1                    5                    1                    2  -4.7710793649180516E-011
                    1                    5                    2                    1  -5.7951552411006357E-011
                    1                    5                    2                    2   5.9663237173883399E-011
                    1                    5                    2                    4   3.9614275510087282E-010
                    1                    5                    2                    5  -4.5767743848262876E-010
                    1                    5                    3                    3   5.3239409757642288E-011
                    1                    5                    4                    1   2.6764413602053949E-011
                    1                    5                    4                    2  -5.4581955361704404E-010
                    1                    5                    4                    4   1.4943712147529507E-010
                    1                    5                    4                    5   1.5176390482860014E-009
                    1                    5                    5                    1  -1.3825540712275597E-010
                    1                    5                    5                    2   1.1847953438649805E-009
                    1                    5                    5                    4  -1.4166887047153964E-009
                    1                    5                    5                    5  -3.0794548875657344E-010
                    1                    6                    1                    7  -3.0361368974496372E-010
                    1                    6                    1                    9  -9.5944210909415517E-011
                    1                    6                    1                   10  -5.6767840428406657E-011
                    1                    6                    2                    6   1.2723835873806877E-010
                    1                    6                    2                    7  -6.1228297432158740E-010
                    1                    6                    2                    9   1.5901951175116558E-010
                    1                    6                    2                   10   9.3011359465072774E-011
                    1                    6                    3                    8  -5.9021555351423949E-010
                    1                    6                    4                    6   3.0589655808377358E-011
                    1                    6                    4                    7  -8.3639394130204103E-011
                    1                    6                    4                    9  -1.6891086793147103E-010
                    1                    6                    4                   10   2.1520476936945365E-010
                    1                    6                    5                    6   1.5888956816922928E-011
                    1                    6                    5                    7  -7.0673873762798489E-011
                    1                    6                    5                    9   2.6171026890758897E-010
                    1                    6                    5                   10  -1.0304745251543679E-010
                    1                    6                    6                    2   3.2572697317156951E-010
                    1                    6                    6                    4   7.2221131852678866E-011
                    1                    6                    6                    5   2.7790644785419261E-011
                    1                    6                    7                    1  -1.4935164216467456E-010
                    1                    6                    7                    2   6.1228297085214045E-010
                    1                    6                    7                    4  -1.7886821277596221E-010
                    1                    6                    7                    5  -8.8072856082796469E-011
                    1                    6                    8                    3   5.9021555351423949E-010
                    1                    6                    9                    1  -6.8665767516407072E-012
                    1                    6                    9                    2   1.0348809493816030E-010
                    1                    6                    9                    4   1.6891086793147103E-010
                    1                    6                    9                    5  -2.2679169046219139E-010
                    1                    6                   10                    1   1.3088238826064469E-011
                    1                    6                   10                    2   6.5735372006825443E-011
                    1                    6                   10                    4  -2.5012334781485124E-010
                    1                    6                   10                    5   1.0304745251543679E-010
                    1                    7                    1                    6   3.0361368974496372E-010
                    1                    7                    1                    9   2.4472158674515576E-011
                    1                    7                    1                   10   2.0225405551743680E-011
                    1                    7                    2                    6   2.2721231840439060E-010
                    1                    7                    2                    7  -8.8232005382438139E-010
                    1                    7                    2                    9   8.8986607535770923E-010
                    1                    7                    2                   10   1.3050619426281662E-009
                    1                    7                    3                    8   1.5596742161672061E-009
                    1                    7                    4                    6  -2.4304990919182812E-010
                    1                    7                    4                    7   1.6876368046092605E-009
                    1                    7                    4                    9   2.9683793617563126E-010
                    1                    7                    4                   10  -7.8904299218550411E-010
                    1                    7                    5                    6  -2.4746533403181836E-010
                    1                    7                    5                    7   2.3385757115523820E-009
                    1                    7                    5                    9  -8.6620375157548182E-010
                    1                    7                    5                   10   2.4720815672285568E-012
                    1                    7                    6                    1  -3.2572700092714513E-010
                    1                    7                    6                    4  -4.8122770959085903E-012
                    1                    7                    6                    5   2.7485480254621497E-011
                    1                    7                    7                    1  -4.1489700564056875E-011
                    1                    7                    7                    2   4.7017878132549207E-010
                    1                    7                    7                    4  -9.8797710117171089E-010
                    1                    7                    7                    5  -1.5816792823392101E-009
                    1                    7                    8                    3  -1.5754289400815580E-009
                    1                    7                    9                    1   1.4326974762807199E-010
                    1                    7                    9                    2  -1.2484904429732602E-009
                    1                    7                    9                    4  -3.9206257858304117E-010
                    1                    7                    9                    5   7.2646383852091601E-010
                    1                    7                   10                    1   1.6130068461461811E-010
                    1                    7                   10                    2  -1.8475545221323386E-009
                    1                    7                   10                    4   6.9184485386713374E-010
                    1                    7                   10                    5  -7.2485772592556508E-011
                    1                    8                    2                    8   8.4568599519052601E-010
                    1                    8                    3                    6   8.3591248506431626E-011
                    1                    8                    3                    7   1.4679456504518296E-009
                    1                    8                    3                    9   4.5995360211520397E-010
                    1                    8                    3                   10   5.3581926135609637E-010
                    1                    8                    4                    8   1.5673887864692260E-009
                    1                    8                    5                    8   1.7750896416819650E-009
                    1                    8                    7                    3  -1.4411266936742440E-009
                    1                    8                    8                    1   3.2237057467909835E-010
                    1                    8                    8                    2  -2.4219063334690594E-009
                    1                    8                    8                    4  -8.8864573685731862E-010
                    1                    8                    8                    5  -1.0988511710795235E-009
                    1                    8                    9                    3  -3.5303439251815893E-010
                    1                    8                   10                    3  -4.6793861580712859E-010
                    1                    9                    1                    6   9.5944210909415517E-011
                    1                    9                    1                    7  -2.4472158674515576E-011
                    1                    9                    1                   10   3.6552948168289134E-012
                    1                    9                    2                    6  -1.7670644895245724E-010
                    1                    9                    2                    7   9.3786692951722261E-010
                    1                    9                    2                    9   2.0838134690004395E-010
                    1                    9                    2                   10  -1.7892414351343422E-010
[...]
    8    1    3    6        0.0092593970
    8    1    3    7        0.0089913128
    8    1    3    8        0.0000000061
    8    2    3    1       -0.0194330336
    8    2    3    2       -0.0511947380
    8    2    3    3       -0.0000000132
    8    2    3    4       -0.0053312368
    8    2    3    5       -0.0047078109
    8    2    3    6        0.0120108424
    8    2    3    7        0.0112521216
    8    2    3    8        0.0000000166
    8    3    3    1       -0.0000000061
    8    3    3    2       -0.0000000134
    8    3    3    3       -0.1999075946
    8    3    3    4       -0.0000000039
    8    3    3    5       -0.0000000039
    8    3    3    6        0.0000000017
    8    3    3    7       -0.0000000055
    8    3    3    8        0.1587342962
    8    4    3    1       -0.0032562829
    8    4    3    2       -0.0004582431
    8    4    3    3       -0.0000000119
    8    4    3    4       -0.0055287674
    8    4    3    5       -0.0004035804
    8    4    3    6        0.0025591889
    8    4    3    7        0.0169543068
    8    4    3    8        0.0000000186
    8    5    3    1       -0.0028834204
    8    5    3    2        0.0001084805
    8    5    3    3       -0.0000000062
    8    5    3    4       -0.0002952166
    8    5    3    5       -0.0045641119
    8    5    3    6        0.0155589675
    8    5    3    7        0.0006624601
    8    5    3    8        0.0000000114
    8    6    3    1        0.0069243560
    8    6    3    2        0.0252607361
    8    6    3    3        0.0000000337
    8    6    3    4        0.0067447436
    8    6    3    5        0.0259167226
    8    6    3    6       -0.0183660670
    8    6    3    7       -0.0024406445
    8    6    3    8       -0.0000000209
    8    7    3    1        0.0068798229
    8    7    3    2        0.0244350086
    8    7    3    3        0.0000000372
    8    7    3    4        0.0285267510
    8    7    3    5        0.0035524878
    8    7    3    6       -0.0026264595
    8    7    3    7       -0.0178352699
    8    7    3    8       -0.0000000226
    8    8    3    1        0.0000000098
    8    8    3    2        0.0000000324
    8    8    3    3        0.6497976094
    8    8    3    4        0.0000000138
    8    8    3    5        0.0000000112
    8    8    3    6       -0.0000000055
    8    8    3    7        0.0000000027
    8    8    3    8       -0.1832788805
    8    1    4    1       -0.0000000094
    8    1    4    2       -0.0000000036
    8    1    4    3       -0.0075688932
    8    1    4    4       -0.0000000014
    8    1    4    5       -0.0000000010
    8    1    4    6        0.0000000010
    8    1    4    7       -0.0000000019
    8    1    4    8        0.0039456345
    8    2    4    1       -0.0000000009
    8    2    4    2       -0.0000000021
    8    2    4    3       -0.0048835880
    8    2    4    4       -0.0000000017
    8    2    4    5       -0.0000000005
    8    2    4    6       -0.0000000002
    8    2    4    7        0.0000000054
    8    2    4    8        0.0040468190
    8    3    4    1        0.0029563104
    8    3    4    2        0.0041411265
    8    3    4    3       -0.0000000033
    8    3    4    4       -0.1417064882
    8    3    4    5       -0.0040109043
    8    3    4    6        0.0078030996
    8    3    4    7        0.1187595016
    8    3    4    8        0.0000000186
    8    4    4    1       -0.0000000020
    8    4    4    2        0.0000000059
    8    4    4    3       -0.0048294674
    8    4    4    4        0.0000000084
    8    4    4    5       -0.0000000008
    8    4    4    6        0.0000000030
    8    4    4    7        0.0000000296
    8    4    4    8        0.0168495690
    8    5    4    1        0.0000000002
    8    5    4    2       -0.0000000012
    8    5    4    3       -0.0003307290
    8    5    4    4       -0.0000000053
    8    5    4    5       -0.0000000017
    8    5    4    6        0.0000000017
    8    5    4    7        0.0000000054
    8    5    4    8        0.0016876285
    8    6    4    2       -0.0000000017
    8    6    4    3        0.0069296694
    8    6    4    4        0.0000000262
    8    6    4    5        0.0000000034
    8    6    4    6       -0.0000000052
    8    6    4    7       -0.0000000154
    8    6    4    8       -0.0006734171
    8    7    4    1        0.0000000036
    8    7    4    2        0.0000000141
    8    7    4    3        0.0277352988
    8    7    4    4        0.0000000604
    8    7    4    5        0.0000000023
    8    7    4    6       -0.0000000031
    8    7    4    7       -0.0000000120
    8    7    4    8       -0.0065590460
    8    8    4    1       -0.0047479500
    8    8    4    2        0.0069992438
    8    8    4    3        0.0000000138
    8    8    4    4        0.5638973488
    8    8    4    5        0.0096147207
    8    8    4    6       -0.0104919580
    8    8    4    7       -0.1535269150
    8    8    4    8       -0.0000000184
    8    1    5    1       -0.0000000068
    8    1    5    2       -0.0000000019
    8    1    5    3       -0.0066579177
    8    1    5    4       -0.0000000010
    8    1    5    6       -0.0000000019
    8    1    5    7        0.0000000010
    8    1    5    8        0.0034530720
    8    2    5    1       -0.0000000001
    8    2    5    2        0.0000000013
    8    2    5    3       -0.0043226998
    8    2    5    4       -0.0000000005
    8    2    5    5       -0.0000000012
    8    2    5    6        0.0000000049
    8    2    5    7       -0.0000000013
    8    2    5    8        0.0039080339
    8    3    5    1        0.0023198283
    8    3    5    2        0.0033500416
    8    3    5    3       -0.0000000034
    8    3    5    4       -0.0040465136
    8    3    5    5       -0.1309943858
    8    3    5    6        0.1162515672
    8    3    5    7       -0.0059770035
    8    3    5    8        0.0000000114
    8    4    5    1        0.0000000004
    8    4    5    2       -0.0000000012
    8    4    5    3       -0.0004405520
    8    4    5    4       -0.0000000013
    8    4    5    5       -0.0000000090
    8    4    5    6        0.0000000099
    8    4    5    7       -0.0000000006
    8    4    5    8        0.0016876285
    8    5    5    1       -0.0000000021
    8    5    5    2        0.0000000014
    8    5    5    3       -0.0038374239
    8    5    5    4       -0.0000000012
    8    5    5    5        0.0000000046
    8    5    5    6        0.0000000157
    8    5    5    7        0.0000000006
    8    5    5    8        0.0166558424
    8    6    5    1        0.0000000031
    8    6    5    2        0.0000000085
    8    6    5    3        0.0250229070
    8    6    5    4        0.0000000034
    8    6    5    5        0.0000000371
    8    6    5    6       -0.0000000162
    8    6    5    7       -0.0000000027
    8    6    5    8       -0.0059633522
    8    7    5    1       -0.0000000007
    8    7    5    2       -0.0000000045
    8    7    5    3        0.0038210340
    8    7    5    4        0.0000000024
    8    7    5    5        0.0000000257
    8    7    5    6       -0.0000000197
    8    7    5    7       -0.0000000024
    8    7    5    8        0.0002828040
    8    8    5    1       -0.0038009890
    8    8    5    2        0.0060349330
    8    8    5    3        0.0000000112
    8    8    5    4        0.0096147207
    8    8    5    5        0.5432686624
    8    8    5    6       -0.1569423327
    8    8    5    7        0.0078877766
    8    8    5    8       -0.0000000113
    8    1    6    1        0.0000000114
    8    1    6    2       -0.0000000001
    8    1    6    3        0.0089776320
    8    1    6    4        0.0000000009
    8    1    6    5       -0.0000000015
    8    1    6    6        0.0000000029
    8    1    6    7       -0.0000000008
    8    1    6    8       -0.0107912674
    8    2    6    1       -0.0000000004
    8    2    6    2       -0.0000000032
    8    2    6    3        0.0124537522
    8    2    6    5        0.0000000034
    8    2    6    6       -0.0000000022
    8    2    6    7        0.0000000014
    8    2    6    8       -0.0086436329
    8    3    6    1       -0.0048850598
    8    3    6    2        0.0116116440
    8    3    6    3        0.0000000062
    8    3    6    4        0.0068449124
    8    3    6    5        0.1129049014
    8    3    6    6       -0.1639066369
    8    3    6    7        0.0039437994
    8    3    6    8       -0.0000000209
    8    4    6    1       -0.0000000008
    8    4    6    2        0.0000000007
    8    4    6    3        0.0022650485
    8    4    6    4        0.0000000039
    8    4    6    5        0.0000000083
    8    4    6    6       -0.0000000162
    8    4    6    7        0.0000000002
    8    4    6    8       -0.0006734171
    8    5    6    1        0.0000000023
    8    5    6    2        0.0000000020
    8    5    6    3        0.0156540748
    8    5    6    4        0.0000000015
    8    5    6    5        0.0000000200
    8    5    6    6       -0.0000000017
    8    5    6    7       -0.0000000027
    8    5    6    8       -0.0059633522
    8    6    6    1       -0.0000000044
    8    6    6    2       -0.0000000063
    8    6    6    3       -0.0184697903
    8    6    6    4       -0.0000000052
    8    6    6    5       -0.0000000167
    8    6    6    6        0.0000000386
    8    6    6    7        0.0000000010
    8    6    6    8        0.0281049606
    8    7    6    1        0.0000000018
    8    7    6    2        0.0000000022
    8    7    6    3       -0.0028712877
    8    7    6    4       -0.0000000033
    8    7    6    5       -0.0000000203
    8    7    6    6        0.0000000281
    8    7    6    7        0.0000000034
    8    7    6    8        0.0059789156
    8    8    6    1        0.0069827595
    8    8    6    2       -0.0139809384
    8    8    6    3       -0.0000000055
    8    8    6    4       -0.0104919580
    8    8    6    5       -0.1569423327
    8    8    6    6        0.5689704282
    8    8    6    7       -0.0018711970
    8    8    6    8        0.0000000382
    8    1    7    1        0.0000000118
    8    1    7    2        0.0000000003
    8    1    7    3        0.0087163732
    8    1    7    4       -0.0000000014
    8    1    7    5        0.0000000009
    8    1    7    6       -0.0000000008
    8    1    7    7        0.0000000031
    8    1    7    8       -0.0106362342
    8    2    7    1       -0.0000000002
    8    2    7    2       -0.0000000005
    8    2    7    3        0.0117456272
    8    2    7    4        0.0000000033
    8    2    7    5       -0.0000000010
    8    2    7    6        0.0000000014
    8    2    7    7       -0.0000000027
    8    2    7    8       -0.0080871861
    8    3    7    1       -0.0047243960
    8    3    7    2        0.0094447707
    8    3    7    3        0.0000000006
    8    3    7    4        0.1144507772
    8    3    7    5       -0.0065461257
    8    3    7    6        0.0040140840
    8    3    7    7       -0.1733452426
    8    3    7    8       -0.0000000226
    8    4    7    1        0.0000000018
    8    4    7    2        0.0000000012
    8    4    7    3        0.0169909694
    8    4    7    4        0.0000000329
    8    4    7    5       -0.0000000011
    8    4    7    6        0.0000000003
    8    4    7    7        0.0000000011
    8    4    7    8       -0.0065590460
    8    5    7    1       -0.0000000007
    8    5    7    2       -0.0000000004
    8    5    7    3        0.0004054470
    8    5    7    4        0.0000000039
    8    5    7    5        0.0000000017
    8    5    7    6       -0.0000000028
    8    5    7    7       -0.0000000097
    8    5    7    8        0.0002828040
    8    6    7    1        0.0000000016
    8    6    7    2        0.0000000019
    8    6    7    3       -0.0026458803
    8    6    7    4       -0.0000000159
    8    6    7    5       -0.0000000029
    8    6    7    6        0.0000000010
    8    6    7    7        0.0000000273
    8    6    7    8        0.0059789156
    8    7    7    1       -0.0000000055
    8    7    7    2       -0.0000000067
    8    7    7    3       -0.0179194204
    8    7    7    4       -0.0000000123
    8    7    7    5       -0.0000000024
    8    7    7    6        0.0000000034
    8    7    7    7        0.0000000588
    8    7    7    8        0.0302719475
    8    8    7    1        0.0066265162
    8    8    7    2       -0.0102226017
    8    8    7    3        0.0000000027
    8    8    7    4       -0.1535269150
    8    8    7    5        0.0078877766
    8    8    7    6       -0.0018711970
    8    8    7    7        0.5884735597
    8    8    7    8        0.0000000432
    8    1    8    1        0.0531150401
    8    1    8    2        0.0264142979
    8    1    8    3        0.0000000059
    8    1    8    4        0.0037075150
    8    1    8    5        0.0032533767
    8    1    8    6       -0.0106415295
    8    1    8    7       -0.0104879235
    8    1    8    8       -0.0000000122
    8    2    8    1        0.0264142979
    8    2    8    2        0.0506477030
    8    2    8    3        0.0000000136
    8    2    8    4        0.0038864755
    8    2    8    5        0.0037417735
    8    2    8    6       -0.0093013301
    8    2    8    7       -0.0087202881
    8    2    8    8       -0.0000000249
    8    3    8    1        0.0000000059
    8    3    8    2        0.0000000136
    8    3    8    3        0.1535352887
    8    3    8    4        0.0000000162
    8    3    8    5        0.0000000097
    8    3    8    6       -0.0000000213
    8    3    8    7       -0.0000000231
    8    3    8    8       -0.1832788805
    8    4    8    1        0.0037075150
    8    4    8    2        0.0038864755
    8    4    8    3        0.0000000162
    8    4    8    4        0.0163335924
    8    4    8    5        0.0015768967
    8    4    8    6       -0.0005923770
    8    4    8    7       -0.0068682153
    8    4    8    8       -0.0000000184
    8    5    8    1        0.0032533767
    8    5    8    2        0.0037417735
    8    5    8    3        0.0000000097
    8    5    8    4        0.0015768967
    8    5    8    5        0.0170014122
    8    5    8    6       -0.0062570640
    8    5    8    7        0.0003847075
    8    5    8    8       -0.0000000113
    8    6    8    1       -0.0106415295
    8    6    8    2       -0.0093013301
    8    6    8    3       -0.0000000213
    8    6    8    4       -0.0005923770
    8    6    8    5       -0.0062570640
    8    6    8    6        0.0281297984
    8    6    8    7        0.0059477359
    8    6    8    8        0.0000000382
    8    7    8    1       -0.0104879235
    8    7    8    2       -0.0087202881
    8    7    8    3       -0.0000000231
    8    7    8    4       -0.0068682153
    8    7    8    5        0.0003847075
    8    7    8    6        0.0059477359
    8    7    8    7        0.0303019920
    8    7    8    8        0.0000000432
    8    8    8    1       -0.0000000122
    8    8    8    2       -0.0000000249
    8    8    8    3       -0.1832788805
    8    8    8    4       -0.0000000184
    8    8    8    5       -0.0000000113
    8    8    8    6        0.0000000382
    8    8    8    7        0.0000000432
    8    8    8    8        0.6124846399
 end_two_electron_integrals

 Parallel integral file used      16 records with       0 large values


 Task  times  cpu:      592.3s     wall:      594.2s


                                NWChem Input Module
                                -------------------


 Summary of allocated global arrays
-----------------------------------
  No active global arrays


MA_summarize_allocated_blocks: starting scan ...
MA_summarize_allocated_blocks: scan completed: 0 heap blocks, 0 stack blocks
MA usage statistics:

	allocation statistics:
					      heap	     stack
					      ----	     -----
	current number of blocks	         0	         0
	maximum number of blocks	        18	        42
	current total bytes		         0	         0
	maximum total bytes		  25775960	4725685720
	maximum total K-bytes		     25776	   4725686
	maximum total M-bytes		        26	      4726


                                     CITATION
                                     --------
                Please cite the following reference when publishing
                           results obtained with NWChem:

          E. Apra, E. J. Bylaska, W. A. de Jong, N. Govind, K. Kowalski,
       T. P. Straatsma, M. Valiev, H. J. J. van Dam, Y. Alexeev, J. Anchell,
       V. Anisimov, F. W. Aquino, R. Atta-Fynn, J. Autschbach, N. P. Bauman,
     J. C. Becca, D. E. Bernholdt, K. Bhaskaran-Nair, S. Bogatko, P. Borowski,
         J. Boschen, J. Brabec, A. Bruner, E. Cauet, Y. Chen, G. N. Chuev,
      C. J. Cramer, J. Daily, M. J. O. Deegan, T. H. Dunning Jr., M. Dupuis,
   K. G. Dyall, G. I. Fann, S. A. Fischer, A. Fonari, H. Fruchtl, L. Gagliardi,
      J. Garza, N. Gawande, S. Ghosh, K. Glaesemann, A. W. Gotz, J. Hammond,
       V. Helms, E. D. Hermes, K. Hirao, S. Hirata, M. Jacquelin, L. Jensen,
   B. G. Johnson, H. Jonsson, R. A. Kendall, M. Klemm, R. Kobayashi, V. Konkov,
      S. Krishnamoorthy, M. Krishnan, Z. Lin, R. D. Lins, R. J. Littlefield,
      A. J. Logsdail, K. Lopata, W. Ma, A. V. Marenich, J. Martin del Campo,
   D. Mejia-Rodriguez, J. E. Moore, J. M. Mullin, T. Nakajima, D. R. Nascimento,
    J. A. Nichols, P. J. Nichols, J. Nieplocha, A. Otero-de-la-Roza, B. Palmer,
    A. Panyala, T. Pirojsirikul, B. Peng, R. Peverati, J. Pittner, L. Pollack,
   R. M. Richard, P. Sadayappan, G. C. Schatz, W. A. Shelton, D. W. Silverstein,
   D. M. A. Smith, T. A. Soares, D. Song, M. Swart, H. L. Taylor, G. S. Thomas,
            V. Tipparaju, D. G. Truhlar, K. Tsemekhman, T. Van Voorhis,
      A. Vazquez-Mayagoitia, P. Verma, O. Villa, A. Vishnu, K. D. Vogiatzis,
        D. Wang, J. H. Weare, M. J. Williamson, T. L. Windus, K. Wolinski,
        A. T. Wong, Q. Wu, C. Yang, Q. Yu, M. Zacharias, Z. Zhang, Y. Zhao,
                                and R. J. Harrison
                        "NWChem: Past, present, and future
                         J. Chem. Phys. 152, 184102 (2020)
                               doi:10.1063/5.0004997

                                      AUTHORS
                                      -------
  E. Apra, E. J. Bylaska, N. Govind, K. Kowalski, M. Valiev, D. Mejia-Rodriguez,
       A. Kunitsa, N. P. Bauman, A. Panyala, W. A. de Jong, T. P. Straatsma,
        H. J. J. van Dam, D. Wang, T. L. Windus, J. Hammond, J. Autschbach,
    K. Bhaskaran-Nair, J. Brabec, K. Lopata, S. A. Fischer, S. Krishnamoorthy,
     M. Jacquelin, W. Ma, M. Klemm, O. Villa, Y. Chen, V. Anisimov, F. Aquino,
    S. Hirata, M. T. Hackler, Eric Hermes, L. Jensen, J. E. Moore, J. C. Becca,
      V. Konjkov, T. Risthaus, M. Malagoli, A. Marenich, A. Otero-de-la-Roza,
        J. Mullin, P. Nichols, R. Peverati, J. Pittner, Y. Zhao, P.-D. Fan,
        A. Fonari, M. J. Williamson, R. J. Harrison, J. R. Rehr, M. Dupuis,
     D. Silverstein, D. M. A. Smith, J. Nieplocha, V. Tipparaju, M. Krishnan,
     B. E. Van Kuiken, A. Vazquez-Mayagoitia, M. Swart, Q. Wu, T. Van Voorhis,
     A. A. Auer, M. Nooijen, L. D. Crosby, E. Brown, G. Cisneros, G. I. Fann,
   H. Fruchtl, J. Garza, K. Hirao, R. A. Kendall, J. A. Nichols, K. Tsemekhman,
    K. Wolinski, J. Anchell, D. E. Bernholdt, P. Borowski, T. Clark, D. Clerc,
   H. Dachsel, M. J. O. Deegan, K. Dyall, D. Elwood, E. Glendening, M. Gutowski,
   A. C. Hess, J. Jaffe, B. G. Johnson, J. Ju, R. Kobayashi, R. Kutteh, Z. Lin,
   R. Littlefield, X. Long, B. Meng, T. Nakajima, S. Niu, L. Pollack, M. Rosing,
   K. Glaesemann, G. Sandrone, M. Stave, H. Taylor, G. Thomas, J. H. van Lenthe,
                               A. T. Wong, Z. Zhang.

 Total times  cpu:      597.6s     wall:      602.9s
