 argument  1 = input.nw
  NWChem w/ OpenMP: maximum threads =    1



============================== echo of input deck ==============================
 echo
 start H2O
 title "H2O"

 memory total 24 gb

 geometry units bohr
 symmetry c1
        O  0.00000000  0.00000000  0.00000000
        H  0.00000000  4.8851425  0.00000000
        H  1.72558000 -0.64860000  0.00000000
 end

 basis spherical
   * library cc-pVTZ
 end

 mcscf
   active  8
   actelec 10
   multiplicity 1
   maxiter 40
   vectors input h2o.mos
   vectors output h2o.mos
 end

 task mcscf

 scf
   vectors input h2o.mos
   vectors output h2o-trash.mos
   noscf
 end

 tce
   2eorb
   2emet 13
   ccsd
   maxiter 300
 end

# set tce:print_integrals T
# set tce:qorb 8
# set tce:qela 5
# set tce:qelb 5

 set tce:qducc T
 set tce:nactv 3
 set tce:nonhf T
 set tce:ducc_model 6

 set tce:printtol 0.02

 task tce
================================================================================


                                         
                                         


             Northwest Computational Chemistry Package (NWChem) 7.0.1
             --------------------------------------------------------


                    Environmental Molecular Sciences Laboratory
                       Pacific Northwest National Laboratory
                                Richland, WA 99352

                              Copyright (c) 1994-2020
                       Pacific Northwest National Laboratory
                            Battelle Memorial Institute

             NWChem is an open-source computational chemistry package
                        distributed under the terms of the
                      Educational Community License (ECL) 2.0
             A copy of the license is included with this distribution
                              in the LICENSE.TXT file

                                  ACKNOWLEDGMENT
                                  --------------

            This software and its documentation were developed at the
            EMSL at Pacific Northwest National Laboratory, a multiprogram
            national laboratory, operated for the U.S. Department of Energy
            by Battelle under Contract Number DE-AC05-76RL01830. Support
            for this work was provided by the Department of Energy Office
            of Biological and Environmental Research, Office of Basic
            Energy Sciences, and the Office of Advanced Scientific Computing.


           Job information
           ---------------

    hostname        = WE46210
    program         = /home/baum612/code/nwchem/bin/LINUX64/nwchem
    date            = Mon Mar 11 15:28:39 2024

    compiled        = Fri_Feb_16_11:09:52_2024
    source          = /home/baum612/code/nwchem
    nwchem branch   = 7.0.0
    nwchem revision = nwchem_on_git-4191-g39d87d64de
    ga revision     = 5.8.1
    use scalapack   = F
    input           = input.nw
    prefix          = H2O.
    data base       = ./H2O.db
    status          = startup
    nproc           =        1
    time left       =     -1s



           Memory information
           ------------------

    heap     =  805306362 doubles =   6144.0 Mbytes
    stack    =  805306367 doubles =   6144.0 Mbytes
    global   = 1610612736 doubles =  12288.0 Mbytes (distinct from heap & stack)
    total    = 3221225465 doubles =  24576.0 Mbytes
    verify   = yes
    hardfail = no 


           Directory information
           ---------------------

  0 permanent = .
  0 scratch   = .




                                NWChem Input Module
                                -------------------


                                        H2O
                                        ---
 Turning off AUTOSYM since
 SYMMETRY directive was detected!


          ------
          auto-z
          ------
  autoz: The atoms group into disjoint clusters
 cluster   1:    1    3
 cluster   2:    2
 Connecting clusters   1   2 via atoms    1    2 r = 2.59
  autoz: regenerating connections with new bonds
  no constraints, skipping    0.0000000000000000     
  no constraints, skipping    0.0000000000000000     


                             Geometry "geometry" -> ""
                             -------------------------

 Output coordinates in a.u. (scale by  1.000000000 to convert to a.u.)

  No.       Tag          Charge          X              Y              Z
 ---- ---------------- ---------- -------------- -------------- --------------
    1 O                    8.0000    -0.17255800    -0.42365425     0.00000000
    2 H                    1.0000    -0.17255800     4.46148825     0.00000000
    3 H                    1.0000     1.55302200    -1.07225425     0.00000000

      Atomic Mass 
      ----------- 

      O                 15.994910
      H                  1.007825


 Effective nuclear repulsion energy (a.u.)       6.1498240363

            Nuclear Dipole moment (a.u.) 
            ----------------------------
        X                 Y               Z
 ---------------- ---------------- ----------------
    -0.0000000000     0.0000000000     0.0000000000



                                Z-matrix (autoz)
                                -------- 

 Units are Angstrom for bonds and degrees for angles

      Type          Name      I     J     K     L     M      Value
      ----------- --------  ----- ----- ----- ----- ----- ----------
    1 Stretch                  1     2                       2.58511
    2 Stretch                  1     3                       0.97551
    3 Bend                     2     1     3               110.59992


            XYZ format geometry
            -------------------
     3
 geometry
 O                    -0.09131377    -0.22418819     0.00000000
 H                    -0.09131377     2.36091808     0.00000000
 H                     0.82182391    -0.56741255     0.00000000

 ==============================================================================
                                internuclear distances
 ------------------------------------------------------------------------------
       center one      |      center two      | atomic units |       a.u.
 ------------------------------------------------------------------------------
    3 H                |   1 O                |     1.84345  |     1.84345
 ------------------------------------------------------------------------------
                         number of included internuclear distances:          1
 ==============================================================================





 Summary of "ao basis" -> "" (spherical)
 ------------------------------------------------------------------------------
       Tag                 Description            Shells   Functions and Types
 ---------------- ------------------------------  ------  ---------------------
 *                          cc-pVTZ                   on all atoms 


                      Basis "ao basis" -> "ao basis" (spherical)
                      -----
  O (Oxygen)
  ----------
            Exponent  Coefficients 
       -------------- ---------------------------------------------------------
  1 S  1.53300000E+04  0.000508
  1 S  2.29900000E+03  0.003929
  1 S  5.22400000E+02  0.020243
  1 S  1.47300000E+02  0.079181
  1 S  4.75500000E+01  0.230687
  1 S  1.67600000E+01  0.433118
  1 S  6.20700000E+00  0.350260
  1 S  6.88200000E-01 -0.008154

  2 S  1.53300000E+04 -0.000115
  2 S  2.29900000E+03 -0.000895
  2 S  5.22400000E+02 -0.004636
  2 S  1.47300000E+02 -0.018724
  2 S  4.75500000E+01 -0.058463
  2 S  1.67600000E+01 -0.136463
  2 S  6.20700000E+00 -0.175740
  2 S  6.88200000E-01  0.603418

  3 S  1.75200000E+00  1.000000

  4 S  2.38400000E-01  1.000000

  5 P  3.44600000E+01  0.015928
  5 P  7.74900000E+00  0.099740
  5 P  2.28000000E+00  0.310492

  6 P  7.15600000E-01  1.000000

  7 P  2.14000000E-01  1.000000

  8 D  2.31400000E+00  1.000000

  9 D  6.45000000E-01  1.000000

 10 F  1.42800000E+00  1.000000

  H (Hydrogen)
  ------------
            Exponent  Coefficients 
       -------------- ---------------------------------------------------------
  1 S  3.38700000E+01  0.006068
  1 S  5.09500000E+00  0.045308
  1 S  1.15900000E+00  0.202822

  2 S  3.25800000E-01  1.000000

  3 S  1.02700000E-01  1.000000

  4 P  1.40700000E+00  1.000000

  5 P  3.88000000E-01  1.000000

  6 D  1.05700000E+00  1.000000



 Summary of "ao basis" -> "ao basis" (spherical)
 ------------------------------------------------------------------------------
       Tag                 Description            Shells   Functions and Types
 ---------------- ------------------------------  ------  ---------------------
 O                          cc-pVTZ                 10       30   4s3p2d1f
 H                          cc-pVTZ                  6       14   3s2p1d



                            NWChem Direct MCSCF Module
                            --------------------------


                                        H2O


     -----------------------------------
       Basis functions:             58
       Inactive shells:              0
       Active shells:                8
       Active electrons:            10
       Symmetry:                    a       
       Multiplicity:                 1
       Orbital rotations:          400
     -----------------------------------

     -----------------------------------
       E2 extrapolation:             F
       Conjugacy:                    T
       Micro CI relax:               T
       Canonical orbitals:           T
       Maximum iterations:          40
       Converge threshold:    1.00E-04
       Conjugacy resets:            20
       Initial levelshift:        0.10
     -----------------------------------

 Loading old vectors from job with title :

H2O


   input molecular orbitals = ./h2o.mos
  output molecular orbtials = ./h2o.mos

       No. of determinants:          3136


  Starting Orbital Energies
   -20.611501    -1.307381    -0.672660    -0.549675    -0.359077    -0.211667
    -0.026142    -0.012841     0.280303     0.411721     0.631238     0.687969
     0.782932     0.816866     0.843377     0.895045     0.984355     1.197235
     1.345283     1.712771     1.728090     2.029574     2.032566     2.146341
     2.555423     2.745880     3.452077     3.459601     3.459683     3.465785
     3.468424     3.482863     3.488688     3.524792     3.742674     3.877877
     3.900462     3.915057     3.941677     4.013132     4.143817     4.393120
     4.443076     4.720520     5.120513     5.536806     5.538358     5.793597
     5.795046     6.700121     6.712063     6.804492     6.831446     6.870623
     7.027039     7.055290     7.502573    10.788420

  Orbital Symmetry Irreps
a    a    a    a    a    a    a    a    a    a    a    a    a    a    a   
a    a    a    a    a    a    a    a    a    a    a    a    a    a    a   
a    a    a    a    a    a    a    a    a    a    a    a    a    a    a   
a    a    a    a    a    a    a    a    a    a    a    a    a   

 Integral file          = ./H2O.aoints.0
 Record size in doubles =  65536        No. of integs per rec  =  43688
 Max. records in memory =     49        Max. records in file   = 248718
 No. of bits per label  =      8        No. of bits per value  =     64


 #quartets = 3.111D+04 #integrals = 5.668D+05 #direct =  0.0% #cached =100.0%




          %%%%% MacroIteration   1 %%%%%


          Number of sigma calls:       22
                       o<<<<< (aa):             0.00
                       o<<<<< (bb):             0.00
                       o<<<<< (ab):             0.07
                       o<<<<< (total)           0.08
                       o<<<<< (aa) ff           0.00
                       o<<<<< (aa) gop          0.00
                       o<<<<< (aa) dot          0.00
                       o<<<<< (ab) str          0.00
                       o<<<<< (ab) gath         0.00
                       o<<<<< (ab) dotab        0.00
                       o<<<<< (ab) scat         0.00
                       o<<<<< (ab) sync         0.00
                       o<<<<< Density           0.00
                       o<<<<< Density one       0.00
                       o<<<<< Density two       0.00
                       o<<<<< Density ab        0.00
                       o<<<<< Spin adapt        0.45
                       o<<<<< Symm adapt        0.00

                       o<<<<< (ab) max sync:      0.00

           >>>| Valence CI:            -82.119736706820
           >>>| MCSCF energy:          -75.969912670539
           >>>| Gradient norm:          0.533598629D-02
     --- Warning:    2 Hessian diagonals < 0.05 ---

                              ----- Line search ------

        step       energy         lsg     num-lsg   num-lsh   lsrat    time
      ------- ---------------- --------- --------- --------- ------- --------
       0.0000     -75.96991267 -7.52D-06  0.00D+00  0.00D+00 0.0D+00      1.1

          Number of sigma calls:       24
                       o<<<<< (aa):             0.00
                       o<<<<< (bb):             0.00
                       o<<<<< (ab):             0.07
                       o<<<<< (total)           0.08
                       o<<<<< (aa) ff           0.00
                       o<<<<< (aa) gop          0.00
                       o<<<<< (aa) dot          0.00
                       o<<<<< (ab) str          0.00
                       o<<<<< (ab) gath         0.00
                       o<<<<< (ab) dotab        0.00
                       o<<<<< (ab) scat         0.00
                       o<<<<< (ab) sync         0.00
                       o<<<<< Density           0.01
                       o<<<<< Density one       0.00
                       o<<<<< Density two       0.00
                       o<<<<< Density ab        0.01
                       o<<<<< Spin adapt        0.41
                       o<<<<< Symm adapt        0.00

                       o<<<<< (ab) max sync:      0.00
       1.0000     -75.96991689 -9.17D-07 -9.17D-07  6.60D-06 1.2D-01      1.7

          Number of sigma calls:       20
                       o<<<<< (aa):             0.00
                       o<<<<< (bb):             0.00
                       o<<<<< (ab):             0.05
                       o<<<<< (total)           0.06
                       o<<<<< (aa) ff           0.00
                       o<<<<< (aa) gop          0.00
                       o<<<<< (aa) dot          0.00
                       o<<<<< (ab) str          0.00
                       o<<<<< (ab) gath         0.00
                       o<<<<< (ab) dotab        0.00
                       o<<<<< (ab) scat         0.00
                       o<<<<< (ab) sync         0.00
                       o<<<<< Density           0.00
                       o<<<<< Density one       0.00
                       o<<<<< Density two       0.00
                       o<<<<< Density ab        0.00
                       o<<<<< Spin adapt        0.37
                       o<<<<< Symm adapt        0.00

                       o<<<<< (ab) max sync:      0.00
       1.1388     -75.96991695  8.69D-10  8.51D-10  6.61D-06 1.2D-04      2.3
     --- Orbitals canonicalized ---



          %%%%% MacroIteration   2 %%%%%


          Number of sigma calls:       22
                       o<<<<< (aa):             0.00
                       o<<<<< (bb):             0.00
                       o<<<<< (ab):             0.06
                       o<<<<< (total)           0.07
                       o<<<<< (aa) ff           0.00
                       o<<<<< (aa) gop          0.00
                       o<<<<< (aa) dot          0.00
                       o<<<<< (ab) str          0.00
                       o<<<<< (ab) gath         0.00
                       o<<<<< (ab) dotab        0.00
                       o<<<<< (ab) scat         0.00
                       o<<<<< (ab) sync         0.00
                       o<<<<< Density           0.01
                       o<<<<< Density one       0.00
                       o<<<<< Density two       0.00
                       o<<<<< Density ab        0.01
                       o<<<<< Spin adapt        0.36
                       o<<<<< Symm adapt        0.00

                       o<<<<< (ab) max sync:      0.00

           >>>| Valence CI:            -82.119740989969
           >>>| MCSCF energy:          -75.969916953689
           >>>| Gradient norm:          0.640998652D-03
     --- Warning:    4 Hessian diagonals < 0.05 ---
     --- Conjugacy reset ---

                              ----- Line search ------

        step       energy         lsg     num-lsg   num-lsh   lsrat    time
      ------- ---------------- --------- --------- --------- ------- --------
       0.0000     -75.96991695 -1.23D-07  0.00D+00  0.00D+00 0.0D+00      2.9

          Number of sigma calls:       16
                       o<<<<< (aa):             0.00
                       o<<<<< (bb):             0.00
                       o<<<<< (ab):             0.04
                       o<<<<< (total)           0.04
                       o<<<<< (aa) ff           0.00
                       o<<<<< (aa) gop          0.00
                       o<<<<< (aa) dot          0.00
                       o<<<<< (ab) str          0.00
                       o<<<<< (ab) gath         0.00
                       o<<<<< (ab) dotab        0.00
                       o<<<<< (ab) scat         0.00
                       o<<<<< (ab) sync         0.00
                       o<<<<< Density           0.01
                       o<<<<< Density one       0.00
                       o<<<<< Density two       0.00
                       o<<<<< Density ab        0.01
                       o<<<<< Spin adapt        0.31
                       o<<<<< Symm adapt        0.00

                       o<<<<< (ab) max sync:      0.00
       1.0000     -75.96991702 -1.85D-08 -1.85D-08  1.05D-07 1.5D-01      3.3

          Number of sigma calls:       12
                       o<<<<< (aa):             0.00
                       o<<<<< (bb):             0.00
                       o<<<<< (ab):             0.03
                       o<<<<< (total)           0.03
                       o<<<<< (aa) ff           0.00
                       o<<<<< (aa) gop          0.00
                       o<<<<< (aa) dot          0.00
                       o<<<<< (ab) str          0.00
                       o<<<<< (ab) gath         0.00
                       o<<<<< (ab) dotab        0.00
                       o<<<<< (ab) scat         0.00
                       o<<<<< (ab) sync         0.00
                       o<<<<< Density           0.01
                       o<<<<< Density one       0.00
                       o<<<<< Density two       0.00
                       o<<<<< Density ab        0.01
                       o<<<<< Spin adapt        0.27
                       o<<<<< Symm adapt        0.00

                       o<<<<< (ab) max sync:      0.00
       1.1765     -75.96991703  6.08D-12  5.04D-12  1.05D-07 4.9D-05      3.7



          %%%%% MacroIteration   3 %%%%%


          Number of sigma calls:        1
                       o<<<<< (aa):             0.00
                       o<<<<< (bb):             0.00
                       o<<<<< (ab):             0.00
                       o<<<<< (total)           0.00
                       o<<<<< (aa) ff           0.00
                       o<<<<< (aa) gop          0.00
                       o<<<<< (aa) dot          0.00
                       o<<<<< (ab) str          0.00
                       o<<<<< (ab) gath         0.00
                       o<<<<< (ab) dotab        0.00
                       o<<<<< (ab) scat         0.00
                       o<<<<< (ab) sync         0.00
                       o<<<<< Density           0.00
                       o<<<<< Density one       0.00
                       o<<<<< Density two       0.00
                       o<<<<< Density ab        0.00
                       o<<<<< Spin adapt        0.00
                       o<<<<< Symm adapt        0.00

                       o<<<<< (ab) max sync:      0.00

           >>>| Valence CI:            -82.119741062458
           >>>| MCSCF energy:          -75.969917026177
           >>>| Gradient norm:          0.117106846D-03
     --- Warning:    4 Hessian diagonals < 0.05 ---

                              ----- Line search ------

        step       energy         lsg     num-lsg   num-lsh   lsrat    time
      ------- ---------------- --------- --------- --------- ------- --------
       0.0000     -75.96991703 -3.87D-09  0.00D+00  0.00D+00 0.0D+00      3.8

          Number of sigma calls:       12
                       o<<<<< (aa):             0.00
                       o<<<<< (bb):             0.00
                       o<<<<< (ab):             0.04
                       o<<<<< (total)           0.05
                       o<<<<< (aa) ff           0.00
                       o<<<<< (aa) gop          0.00
                       o<<<<< (aa) dot          0.00
                       o<<<<< (ab) str          0.00
                       o<<<<< (ab) gath         0.00
                       o<<<<< (ab) dotab        0.00
                       o<<<<< (ab) scat         0.00
                       o<<<<< (ab) sync         0.00
                       o<<<<< Density           0.01
                       o<<<<< Density one       0.00
                       o<<<<< Density two       0.00
                       o<<<<< Density ab        0.01
                       o<<<<< Spin adapt        0.25
                       o<<<<< Symm adapt        0.00

                       o<<<<< (ab) max sync:      0.00
       1.0000     -75.96991703 -7.93D-10 -7.93D-10  3.08D-09 2.0D-01      4.2

          Number of sigma calls:       11
                       o<<<<< (aa):             0.00
                       o<<<<< (bb):             0.00
                       o<<<<< (ab):             0.02
                       o<<<<< (total)           0.03
                       o<<<<< (aa) ff           0.00
                       o<<<<< (aa) gop          0.00
                       o<<<<< (aa) dot          0.00
                       o<<<<< (ab) str          0.00
                       o<<<<< (ab) gath         0.00
                       o<<<<< (ab) dotab        0.00
                       o<<<<< (ab) scat         0.00
                       o<<<<< (ab) sync         0.00
                       o<<<<< Density           0.01
                       o<<<<< Density one       0.00
                       o<<<<< Density two       0.00
                       o<<<<< Density ab        0.01
                       o<<<<< Spin adapt        0.27
                       o<<<<< Symm adapt        0.00

                       o<<<<< (ab) max sync:      0.00
       1.2578     -75.96991703 -3.88D-14  5.58D-13  3.08D-09 1.0D-05      4.6



          %%%%% MacroIteration   4 %%%%%


          Number of sigma calls:        1
                       o<<<<< (aa):             0.00
                       o<<<<< (bb):             0.00
                       o<<<<< (ab):             0.00
                       o<<<<< (total)           0.00
                       o<<<<< (aa) ff           0.00
                       o<<<<< (aa) gop          0.00
                       o<<<<< (aa) dot          0.00
                       o<<<<< (ab) str          0.00
                       o<<<<< (ab) gath         0.00
                       o<<<<< (ab) dotab        0.00
                       o<<<<< (ab) scat         0.00
                       o<<<<< (ab) sync         0.00
                       o<<<<< Density           0.01
                       o<<<<< Density one       0.00
                       o<<<<< Density two       0.00
                       o<<<<< Density ab        0.01
                       o<<<<< Spin adapt        0.00
                       o<<<<< Symm adapt        0.00

                       o<<<<< (ab) max sync:      0.00

           >>>| Valence CI:            -82.119741064893
           >>>| MCSCF energy:          -75.969917028612
           >>>| Gradient norm:          0.250952460D-04




     ==============================
            MCSCF Converged
     ==============================



          Canonical Eigenvalues

              1      
    1  -20.6115
    2   -1.3075
    3   -0.6727
    4   -0.5498
    5   -0.3553
    6   -0.2157
    7   -0.0261
    8   -0.0128
    9    0.2793
   10    0.4131
   11    0.6327
   12    0.6852
   13    0.7840
   14    0.8142
   15    0.8424
   16    0.8932
   17    0.9847
   18    1.1835
   19    1.3447
   20    1.7124
   21    1.7251
   22    2.0294
   23    2.0322
   24    2.1454
   25    2.5547
   26    2.7445
   27    3.4537
   28    3.4601
   29    3.4601
   30    3.4658
   31    3.4673
   32    3.4826
   33    3.4862
   34    3.5226
   35    3.7427
   36    3.8791
   37    3.8994
   38    3.9042
   39    3.9394
   40    4.0126
   41    4.1376
   42    4.3929
   43    4.4411
   44    4.7200
   45    5.1154
   46    5.5366
   47    5.5377
   48    5.7934
   49    5.7946
   50    6.6998
   51    6.7094
   52    6.8043
   53    6.8314
   54    6.8673
   55    7.0268
   56    7.0551
   57    7.5016
   58   10.7859


          Converged CI vector

   Index           Coefficient          Config. Occupation
         1         -0.66538542          1  2  3  4  5  1  2  3  4  5
         2         -0.38547261          1  2  3  4  5  1  2  3  4  6
        23         -0.03810381          1  2  3  4  5  1  2  3  5  8
         9         -0.02491106          1  2  3  4  5  1  2  4  5  7
        57         -0.38547261          1  2  3  4  6  1  2  3  4  5
        58          0.48114671          1  2  3  4  6  1  2  3  4  6
        83          0.03166482          1  2  3  4  6  1  2  3  6  8
        69          0.02121156          1  2  3  4  6  1  2  4  6  7
      1233         -0.03810381          1  2  3  5  8  1  2  3  4  5
      1255          0.03792281          1  2  3  5  8  1  2  3  5  8
      1259          0.02265047          1  2  3  5  8  1  2  3  6  8
      1241          0.02406860          1  2  3  5  8  1  2  4  5  7
      1458          0.03166482          1  2  3  6  8  1  2  3  4  6
      1479          0.02265047          1  2  3  6  8  1  2  3  5  8
      1483         -0.02864816          1  2  3  6  8  1  2  3  6  8
       449         -0.02491106          1  2  4  5  7  1  2  3  4  5
       471          0.02406860          1  2  4  5  7  1  2  3  5  8
       457          0.05064226          1  2  4  5  7  1  2  4  5  7
       461          0.02985404          1  2  4  5  7  1  2  4  6  7
       458         -0.02122266          1  2  4  5  7  1  3  4  5  7
       674          0.02121156          1  2  4  6  7  1  2  3  4  6
       681          0.02985404          1  2  4  6  7  1  2  4  5  7
       685         -0.03742663          1  2  4  6  7  1  2  4  6  7
       513         -0.02122266          1  3  4  5  7  1  2  4  5  7

          Number of sigma calls:        1
                       o<<<<< (aa):             0.00
                       o<<<<< (bb):             0.00
                       o<<<<< (ab):             0.00
                       o<<<<< (total)           0.00
                       o<<<<< (aa) ff           0.00
                       o<<<<< (aa) gop          0.00
                       o<<<<< (aa) dot          0.00
                       o<<<<< (ab) str          0.00
                       o<<<<< (ab) gath         0.00
                       o<<<<< (ab) dotab        0.00
                       o<<<<< (ab) scat         0.00
                       o<<<<< (ab) sync         0.00
                       o<<<<< Density           0.01
                       o<<<<< Density one       0.00
                       o<<<<< Density two       0.00
                       o<<<<< Density ab        0.01
                       o<<<<< Spin adapt        0.00
                       o<<<<< Symm adapt        0.00

                       o<<<<< (ab) max sync:      0.00



          Natural orbital occupation numbers

              1      
    1    2.0000
    2    1.9988
    3    1.9853
    4    1.9748
    5    1.2601
    6    0.7401
    7    0.0264
    8    0.0145


          Number of sigma calls:       22
                       o<<<<< (aa):             0.00
                       o<<<<< (bb):             0.00
                       o<<<<< (ab):             0.06
                       o<<<<< (total)           0.07
                       o<<<<< (aa) ff           0.00
                       o<<<<< (aa) gop          0.00
                       o<<<<< (aa) dot          0.00
                       o<<<<< (ab) str          0.00
                       o<<<<< (ab) gath         0.00
                       o<<<<< (ab) dotab        0.00
                       o<<<<< (ab) scat         0.00
                       o<<<<< (ab) sync         0.00
                       o<<<<< Density           0.01
                       o<<<<< Density one       0.00
                       o<<<<< Density two       0.00
                       o<<<<< Density ab        0.01
                       o<<<<< Spin adapt        0.39
                       o<<<<< Symm adapt        0.00

                       o<<<<< (ab) max sync:      0.00


       Final MCSCF results 
       ------------------- 

       Total MCSCF energy =    -75.969917028611
            Gradient norm =      2.5D-05

    CPU time for solution =      5.3s
   Wall time for solution =      9.7s



                        Analysis of MCSCF natural orbitals
                        ----------------------------------

 Vector    1  Occ=1.999992D+00  E=-2.061147D+01  Symmetry=a
              MO Center= -9.1D-02, -2.2D-01, -7.4D-10, r^2= 1.5D-02
   Bfn.  Coefficient  Atom+Function         Bfn.  Coefficient  Atom+Function  
  ----- ------------  ---------------      ----- ------------  ---------------
     1      0.973888  1 O  s          

 Vector    2  Occ=1.998835D+00  E=-1.307452D+00  Symmetry=a
              MO Center= -2.6D-01, -1.6D-01,  5.8D-07, r^2= 4.2D-01
   Bfn.  Coefficient  Atom+Function         Bfn.  Coefficient  Atom+Function  
  ----- ------------  ---------------      ----- ------------  ---------------
     2      0.552487  1 O  s                  4      0.401749  1 O  s          
     3      0.154224  1 O  s          

 Vector    3  Occ=1.985341D+00  E=-6.727328D-01  Symmetry=a
              MO Center= -6.2D-02, -2.3D-01, -5.7D-07, r^2= 6.2D-01
   Bfn.  Coefficient  Atom+Function         Bfn.  Coefficient  Atom+Function  
  ----- ------------  ---------------      ----- ------------  ---------------
    10      0.448610  1 O  pz                13      0.378316  1 O  pz         
     7      0.369802  1 O  pz         

 Vector    4  Occ=1.974777D+00  E=-5.497811D-01  Symmetry=a
              MO Center=  3.3D-01, -3.8D-01, -9.6D-09, r^2= 5.8D-01
   Bfn.  Coefficient  Atom+Function         Bfn.  Coefficient  Atom+Function  
  ----- ------------  ---------------      ----- ------------  ---------------
     8      0.330153  1 O  px                46      0.284372  3 H  s          
     5      0.275501  1 O  px                45      0.188550  3 H  s          
    11      0.177132  1 O  px         

 Vector    5  Occ=1.260116D+00  E=-3.552777D-01  Symmetry=a
              MO Center= -7.3D-02,  1.0D+00, -9.9D-11, r^2= 2.3D+00
   Bfn.  Coefficient  Atom+Function         Bfn.  Coefficient  Atom+Function  
  ----- ------------  ---------------      ----- ------------  ---------------
    32      0.332667  2 H  s                  9      0.311983  1 O  py         
    33      0.270771  2 H  s                  6      0.243459  1 O  py         
    12      0.212528  1 O  py                31      0.160213  2 H  s          

 Vector    6  Occ=7.400704D-01  E=-2.156976D-01  Symmetry=a
              MO Center= -8.0D-02,  1.1D+00,  2.1D-10, r^2= 2.4D+00
   Bfn.  Coefficient  Atom+Function         Bfn.  Coefficient  Atom+Function  
  ----- ------------  ---------------      ----- ------------  ---------------
    32      0.380145  2 H  s                  9     -0.344000  1 O  py         
    33      0.273051  2 H  s                  6     -0.266484  1 O  py         
    12     -0.212801  1 O  py                31      0.176605  2 H  s          

 Vector    7  Occ=2.635493D-02  E=-2.613299D-02  Symmetry=a
              MO Center=  5.1D-01, -4.5D-01, -3.0D-08, r^2= 5.9D-01
   Bfn.  Coefficient  Atom+Function         Bfn.  Coefficient  Atom+Function  
  ----- ------------  ---------------      ----- ------------  ---------------
    46      0.704409  3 H  s                  5     -0.477416  1 O  px         
     8     -0.418417  1 O  px                45      0.350538  3 H  s          
     2     -0.289575  1 O  s                  4     -0.255578  1 O  s          
     6      0.174323  1 O  py                 9      0.154030  1 O  py         

 Vector    8  Occ=1.451388D-02  E=-1.282313D-02  Symmetry=a
              MO Center=  5.3D-02, -2.8D-01, -7.7D-07, r^2= 1.2D+00
   Bfn.  Coefficient  Atom+Function         Bfn.  Coefficient  Atom+Function  
  ----- ------------  ---------------      ----- ------------  ---------------
    13      0.799734  1 O  pz                 7     -0.645214  1 O  pz         
    10     -0.267388  1 O  pz                53      0.171602  3 H  pz         

 Vector    9  Occ=0.000000D+00  E= 2.792646D-01  Symmetry=a
              MO Center=  1.0D+00, -6.3D-01,  2.5D-07, r^2= 3.7D+00
   Bfn.  Coefficient  Atom+Function         Bfn.  Coefficient  Atom+Function  
  ----- ------------  ---------------      ----- ------------  ---------------
    47      1.922238  3 H  s                  4     -1.221597  1 O  s          
    11     -0.539881  1 O  px                51     -0.404796  3 H  px         
    46     -0.265259  3 H  s                 32     -0.179650  2 H  s          
    52      0.165578  3 H  py                12      0.159968  1 O  py         

 Vector   10  Occ=0.000000D+00  E= 4.131299D-01  Symmetry=a
              MO Center= -8.1D-02,  2.5D+00,  2.9D-09, r^2= 3.4D+00
   Bfn.  Coefficient  Atom+Function         Bfn.  Coefficient  Atom+Function  
  ----- ------------  ---------------      ----- ------------  ---------------
    33      1.678236  2 H  s                 32     -1.373032  2 H  s          
    47     -0.466470  3 H  s                 46      0.274439  3 H  s          
    12     -0.221125  1 O  py         

 Vector   11  Occ=0.000000D+00  E= 6.326837D-01  Symmetry=a
              MO Center= -5.9D-01,  4.0D-01, -2.8D-08, r^2= 2.5D+00
   Bfn.  Coefficient  Atom+Function         Bfn.  Coefficient  Atom+Function  
  ----- ------------  ---------------      ----- ------------  ---------------
    46      2.785053  3 H  s                  4     -2.179100  1 O  s          
    11     -2.178830  1 O  px                12      0.873687  1 O  py         
    51     -0.843664  3 H  px                37     -0.309210  2 H  px         
    47      0.276670  3 H  s                 52      0.275833  3 H  py         
    23     -0.192215  1 O  d  2              38     -0.192953  2 H  py         

 Vector   12  Occ=0.000000D+00  E= 6.852126D-01  Symmetry=a
              MO Center= -9.8D-02,  1.1D+00,  4.4D-09, r^2= 2.7D+00
   Bfn.  Coefficient  Atom+Function         Bfn.  Coefficient  Atom+Function  
  ----- ------------  ---------------      ----- ------------  ---------------
     4      0.964595  1 O  s                 11      0.829750  1 O  px         
    46     -0.748940  3 H  s                 38     -0.644495  2 H  py         
    12      0.568615  1 O  py                 9     -0.500730  1 O  py         
    47     -0.307515  3 H  s                 51      0.282016  3 H  px         
    52     -0.256902  3 H  py                37      0.159673  2 H  px         

 Vector   13  Occ=0.000000D+00  E= 7.839906D-01  Symmetry=a
              MO Center= -3.4D-02,  2.1D+00,  1.0D-08, r^2= 1.7D+00
   Bfn.  Coefficient  Atom+Function         Bfn.  Coefficient  Atom+Function  
  ----- ------------  ---------------      ----- ------------  ---------------
    39      1.007720  2 H  pz                53     -0.367993  3 H  pz         
    13      0.234987  1 O  pz         

 Vector   14  Occ=0.000000D+00  E= 8.141792D-01  Symmetry=a
              MO Center= -1.7D-01,  1.9D+00, -7.8D-09, r^2= 2.1D+00
   Bfn.  Coefficient  Atom+Function         Bfn.  Coefficient  Atom+Function  
  ----- ------------  ---------------      ----- ------------  ---------------
    46      1.042597  3 H  s                 37      0.978370  2 H  px         
    11     -0.918956  1 O  px                 4     -0.834456  1 O  s          
    52      0.331470  3 H  py                51     -0.224147  3 H  px         
    12      0.205227  1 O  py         

 Vector   15  Occ=0.000000D+00  E= 8.424183D-01  Symmetry=a
              MO Center=  6.9D-01, -2.6D-01,  3.9D-09, r^2= 1.9D+00
   Bfn.  Coefficient  Atom+Function         Bfn.  Coefficient  Atom+Function  
  ----- ------------  ---------------      ----- ------------  ---------------
    52      0.998868  3 H  py                 4     -0.690165  1 O  s          
    46      0.407028  3 H  s                  9     -0.354379  1 O  py         
    38      0.293579  2 H  py                47      0.267181  3 H  s          
     8     -0.251105  1 O  px                12      0.229423  1 O  py         
    11     -0.220266  1 O  px                37     -0.205737  2 H  px         

 Vector   16  Occ=0.000000D+00  E= 8.932196D-01  Symmetry=a
              MO Center=  4.1D-01, -1.9D-01, -9.4D-09, r^2= 2.3D+00
   Bfn.  Coefficient  Atom+Function         Bfn.  Coefficient  Atom+Function  
  ----- ------------  ---------------      ----- ------------  ---------------
    53      1.193487  3 H  pz                13     -0.922640  1 O  pz         
    39      0.328588  2 H  pz         

 Vector   17  Occ=0.000000D+00  E= 9.846571D-01  Symmetry=a
              MO Center= -8.8D-02, -2.9D-01,  1.9D-07, r^2= 3.1D+00
   Bfn.  Coefficient  Atom+Function         Bfn.  Coefficient  Atom+Function  
  ----- ------------  ---------------      ----- ------------  ---------------
     4      2.795778  1 O  s                 46     -1.765077  3 H  s          
    12     -1.376266  1 O  py                51      1.071809  3 H  px         
    47     -0.784682  3 H  s                 11      0.673645  1 O  px         
     2     -0.645769  1 O  s                  8      0.543456  1 O  px         
    38     -0.539847  2 H  py                52      0.367044  3 H  py         

 Vector   18  Occ=0.000000D+00  E= 1.183500D+00  Symmetry=a
              MO Center= -3.6D-02,  7.0D-01,  4.6D-07, r^2= 2.4D+00
   Bfn.  Coefficient  Atom+Function         Bfn.  Coefficient  Atom+Function  
  ----- ------------  ---------------      ----- ------------  ---------------
     4      3.283722  1 O  s                 46     -1.819845  3 H  s          
     2     -0.963198  1 O  s                 11      0.933831  1 O  px         
    51      0.795757  3 H  px                52     -0.639054  3 H  py         
    47     -0.586916  3 H  s                 38      0.583269  2 H  py         
     8      0.534186  1 O  px                 9     -0.444753  1 O  py         


 Wrote Lagrangian and 1- and 2-particle density matrices to ./H2O.mcpdm


     Multipole analysis of the density
     ---------------------------------

     L   x y z        total        nuclear
     -   - - -        -----        -------
     0   0 0 0     -0.000000     10.000000

     1   1 0 0      0.592381     -0.000000
     1   0 1 0     -0.196073      0.000000
     1   0 0 1      0.000000      0.000000

     2   2 0 0     -4.429751      2.679864
     2   1 1 0     -0.570370     -1.850260
     2   1 0 1     -0.000000      0.000000
     2   0 2 0     -4.433824     22.490470
     2   0 1 1     -0.000000      0.000000
     2   0 0 2     -5.924747      0.000000


  Mulliken analysis of the total density
  --------------------------------------

    Atom       Charge   Shell Charges
 -----------   ------   -------------------------------------------------------
    1 O    8     8.24   1.95  1.06  0.25  0.64  1.22  1.95  1.15  0.00  0.01  0.00
    2 H    1     1.00   0.17  0.48  0.34 -0.00  0.00 -0.00
    3 H    1     0.77   0.25  0.40  0.03  0.02  0.06  0.01

    Mulliken analysis of the active space density
    ---------------------------------------------

    Atom       Charge   Shell Charges
 -----------   ------   -------------------------------------------------------
    1 O    8     8.24   1.95  1.06  0.25  0.64  1.22  1.95  1.15  0.00  0.01  0.00
    2 H    1     1.00   0.17  0.48  0.34 -0.00  0.00 -0.00
    3 H    1     0.77   0.25  0.40  0.03  0.02  0.06  0.01

 Parallel integral file used      13 records with       0 large values


 Task  times  cpu:        5.3s     wall:        9.7s


                                NWChem Input Module
                                -------------------


                                 NWChem SCF Module
                                 -----------------


                                        H2O



  ao basis        = "ao basis"
  functions       =    58
  atoms           =     3
  closed shells   =     5
  open shells     =     0
  charge          =   0.00
  wavefunction    = RHF 
  input vectors   = ./h2o.mos
  output vectors  = ./h2o-trash.mos
  use symmetry    = F
  symmetry adapt  = F


 Summary of "ao basis" -> "ao basis" (spherical)
 ------------------------------------------------------------------------------
       Tag                 Description            Shells   Functions and Types
 ---------------- ------------------------------  ------  ---------------------
 O                          cc-pVTZ                 10       30   4s3p2d1f
 H                          cc-pVTZ                  6       14   3s2p1d



 Forming initial guess at       9.8s


 Loading old vectors from job with title :

H2O


 Starting SCF solution at       9.8s



 ----------------------------------------------
         Quadratically convergent ROHF

 Convergence threshold     :          1.000E-04
 Maximum no. of iterations :           30
 Final Fock-matrix accuracy:          1.000E-07
 ----------------------------------------------


 Integral file          = ./H2O.aoints.0
 Record size in doubles =  65536        No. of integs per rec  =  43688
 Max. records in memory =     49        Max. records in file   = 248755
 No. of bits per label  =      8        No. of bits per value  =     64


 #quartets = 3.035D+04 #integrals = 5.497D+05 #direct =  0.0% #cached =100.0%



       Final RHF  results 
       ------------------ 

         Total SCF energy =    -75.715814885274
      One-electron energy =   -116.760143837553
      Two-electron energy =     34.894504915998
 Nuclear repulsion energy =      6.149824036281

        Time for solution =      0.1s


             Final eigenvalues
             -----------------

              1      
    1  -20.6115
    2   -1.3075
    3   -0.6727
    4   -0.5498
    5   -0.3553
    6   -0.2157
    7   -0.0261
    8   -0.0128
    9    0.2793
   10    0.4131
   11    0.6327
   12    0.6852
   13    0.7840
   14    0.8142
   15    0.8424

                       ROHF Final Molecular Orbital Analysis
                       -------------------------------------

 Vector    2  Occ=2.000000D+00  E=-1.307452D+00
              MO Center= -2.6D-01, -1.6D-01,  5.8D-07, r^2= 4.2D-01
   Bfn.  Coefficient  Atom+Function         Bfn.  Coefficient  Atom+Function  
  ----- ------------  ---------------      ----- ------------  ---------------
     2      0.552487  1 O  s                  4      0.401749  1 O  s          
     3      0.154224  1 O  s          

 Vector    3  Occ=2.000000D+00  E=-6.727328D-01
              MO Center= -6.2D-02, -2.3D-01, -5.7D-07, r^2= 6.2D-01
   Bfn.  Coefficient  Atom+Function         Bfn.  Coefficient  Atom+Function  
  ----- ------------  ---------------      ----- ------------  ---------------
    10      0.448610  1 O  pz                13      0.378316  1 O  pz         
     7      0.369802  1 O  pz         

 Vector    4  Occ=2.000000D+00  E=-5.497811D-01
              MO Center=  3.3D-01, -3.8D-01, -9.6D-09, r^2= 5.8D-01
   Bfn.  Coefficient  Atom+Function         Bfn.  Coefficient  Atom+Function  
  ----- ------------  ---------------      ----- ------------  ---------------
     8      0.330153  1 O  px                46      0.284372  3 H  s          
     5      0.275501  1 O  px                45      0.188550  3 H  s          
    11      0.177132  1 O  px         

 Vector    5  Occ=2.000000D+00  E=-3.552777D-01
              MO Center= -7.3D-02,  1.0D+00, -9.9D-11, r^2= 2.3D+00
   Bfn.  Coefficient  Atom+Function         Bfn.  Coefficient  Atom+Function  
  ----- ------------  ---------------      ----- ------------  ---------------
    32      0.332667  2 H  s                  9      0.311983  1 O  py         
    33      0.270771  2 H  s                  6      0.243459  1 O  py         
    12      0.212528  1 O  py                31      0.160213  2 H  s          

 Vector    6  Occ=0.000000D+00  E=-2.156976D-01
              MO Center= -8.0D-02,  1.1D+00,  2.1D-10, r^2= 2.4D+00
   Bfn.  Coefficient  Atom+Function         Bfn.  Coefficient  Atom+Function  
  ----- ------------  ---------------      ----- ------------  ---------------
    32      0.380145  2 H  s                  9     -0.344000  1 O  py         
    33      0.273051  2 H  s                  6     -0.266484  1 O  py         
    12     -0.212801  1 O  py                31      0.176605  2 H  s          

 Vector    7  Occ=0.000000D+00  E=-2.613299D-02
              MO Center=  5.1D-01, -4.5D-01, -3.0D-08, r^2= 5.9D-01
   Bfn.  Coefficient  Atom+Function         Bfn.  Coefficient  Atom+Function  
  ----- ------------  ---------------      ----- ------------  ---------------
    46      0.704409  3 H  s                  5     -0.477416  1 O  px         
     8     -0.418417  1 O  px                45      0.350538  3 H  s          
     2     -0.289575  1 O  s                  4     -0.255578  1 O  s          
     6      0.174323  1 O  py                 9      0.154030  1 O  py         

 Vector    8  Occ=0.000000D+00  E=-1.282313D-02
              MO Center=  5.3D-02, -2.8D-01, -7.7D-07, r^2= 1.2D+00
   Bfn.  Coefficient  Atom+Function         Bfn.  Coefficient  Atom+Function  
  ----- ------------  ---------------      ----- ------------  ---------------
    13      0.799734  1 O  pz                 7     -0.645214  1 O  pz         
    10     -0.267388  1 O  pz                53      0.171602  3 H  pz         

 Vector    9  Occ=0.000000D+00  E= 2.792646D-01
              MO Center=  1.0D+00, -6.3D-01,  2.5D-07, r^2= 3.7D+00
   Bfn.  Coefficient  Atom+Function         Bfn.  Coefficient  Atom+Function  
  ----- ------------  ---------------      ----- ------------  ---------------
    47      1.922238  3 H  s                  4     -1.221597  1 O  s          
    11     -0.539881  1 O  px                51     -0.404796  3 H  px         
    46     -0.265259  3 H  s                 32     -0.179650  2 H  s          
    52      0.165578  3 H  py                12      0.159968  1 O  py         

 Vector   10  Occ=0.000000D+00  E= 4.131299D-01
              MO Center= -8.1D-02,  2.5D+00,  2.9D-09, r^2= 3.4D+00
   Bfn.  Coefficient  Atom+Function         Bfn.  Coefficient  Atom+Function  
  ----- ------------  ---------------      ----- ------------  ---------------
    33      1.678236  2 H  s                 32     -1.373032  2 H  s          
    47     -0.466470  3 H  s                 46      0.274439  3 H  s          
    12     -0.221125  1 O  py         

 Vector   11  Occ=0.000000D+00  E= 6.326837D-01
              MO Center= -5.9D-01,  4.0D-01, -2.8D-08, r^2= 2.5D+00
   Bfn.  Coefficient  Atom+Function         Bfn.  Coefficient  Atom+Function  
  ----- ------------  ---------------      ----- ------------  ---------------
    46      2.785053  3 H  s                  4     -2.179100  1 O  s          
    11     -2.178830  1 O  px                12      0.873687  1 O  py         
    51     -0.843664  3 H  px                37     -0.309210  2 H  px         
    47      0.276670  3 H  s                 52      0.275833  3 H  py         
    23     -0.192215  1 O  d  2              38     -0.192953  2 H  py         

 Vector   12  Occ=0.000000D+00  E= 6.852126D-01
              MO Center= -9.8D-02,  1.1D+00,  4.4D-09, r^2= 2.7D+00
   Bfn.  Coefficient  Atom+Function         Bfn.  Coefficient  Atom+Function  
  ----- ------------  ---------------      ----- ------------  ---------------
     4      0.964595  1 O  s                 11      0.829750  1 O  px         
    46     -0.748940  3 H  s                 38     -0.644495  2 H  py         
    12      0.568615  1 O  py                 9     -0.500730  1 O  py         
    47     -0.307515  3 H  s                 51      0.282016  3 H  px         
    52     -0.256902  3 H  py                37      0.159673  2 H  px         

 Vector   13  Occ=0.000000D+00  E= 7.839906D-01
              MO Center= -3.4D-02,  2.1D+00,  1.0D-08, r^2= 1.7D+00
   Bfn.  Coefficient  Atom+Function         Bfn.  Coefficient  Atom+Function  
  ----- ------------  ---------------      ----- ------------  ---------------
    39      1.007720  2 H  pz                53     -0.367993  3 H  pz         
    13      0.234987  1 O  pz         

 Vector   14  Occ=0.000000D+00  E= 8.141792D-01
              MO Center= -1.7D-01,  1.9D+00, -7.8D-09, r^2= 2.1D+00
   Bfn.  Coefficient  Atom+Function         Bfn.  Coefficient  Atom+Function  
  ----- ------------  ---------------      ----- ------------  ---------------
    46      1.042597  3 H  s                 37      0.978370  2 H  px         
    11     -0.918956  1 O  px                 4     -0.834456  1 O  s          
    52      0.331470  3 H  py                51     -0.224147  3 H  px         
    12      0.205227  1 O  py         

 Vector   15  Occ=0.000000D+00  E= 8.424183D-01
              MO Center=  6.9D-01, -2.6D-01,  3.9D-09, r^2= 1.9D+00
   Bfn.  Coefficient  Atom+Function         Bfn.  Coefficient  Atom+Function  
  ----- ------------  ---------------      ----- ------------  ---------------
    52      0.998868  3 H  py                 4     -0.690165  1 O  s          
    46      0.407028  3 H  s                  9     -0.354379  1 O  py         
    38      0.293579  2 H  py                47      0.267181  3 H  s          
     8     -0.251105  1 O  px                12      0.229423  1 O  py         
    11     -0.220266  1 O  px                37     -0.205737  2 H  px         


 center of mass
 --------------
 x =  -0.07599894 y =  -0.18658814 z =   0.00000000

 moments of inertia (a.u.)
 ------------------
          23.463132044546           1.540246582083           0.000000000000
           1.540246582083           2.833002082974           0.000000000000
           0.000000000000           0.000000000000          26.296134127520

  Mulliken analysis of the total density
  --------------------------------------

    Atom       Charge   Shell Charges
 -----------   ------   -------------------------------------------------------
    1 O    8     8.25   1.95  1.06  0.25  0.64  1.20  1.95  1.19  0.00  0.01  0.00
    2 H    1     0.98   0.16  0.46  0.36 -0.00  0.00 -0.00
    3 H    1     0.76   0.25  0.40  0.03  0.02  0.06  0.01

       Multipole analysis of the density wrt the origin
       ------------------------------------------------

     L   x y z        total         open         nuclear
     -   - - -        -----         ----         -------
     0   0 0 0     -0.000000      0.000000     10.000000

     1   1 0 0      0.594863      0.000000     -0.000000
     1   0 1 0     -0.097901      0.000000      0.000000
     1   0 0 1      0.000000      0.000000      0.000000

     2   2 0 0     -4.473729      0.000000      2.679864
     2   1 1 0     -0.653923      0.000000     -1.850260
     2   1 0 1     -0.000000      0.000000      0.000000
     2   0 2 0     -3.673815      0.000000     22.490470
     2   0 1 1     -0.000000      0.000000      0.000000
     2   0 0 2     -5.967510      0.000000      0.000000


 Parallel integral file used      13 records with       0 large values

                   NWChem Extensible Many-Electron Theory Module
                   ---------------------------------------------

              ======================================================
                   This portion of the program was automatically
                  generated by a Tensor Contraction Engine (TCE).
                  The development of this portion of the program
                 and TCE was supported by US Department of Energy,
                Office of Science, Office of Basic Energy Science.
                      TCE is a product of Battelle and PNNL.
              Please cite: S.Hirata, J.Phys.Chem.A 107, 9887 (2003).
              ======================================================

                                        H2O


            General Information
            -------------------
      Number of processors :     1
         Wavefunction type : Restricted Hartree-Fock
          No. of electrons :    10
           Alpha electrons :     5
            Beta electrons :     5
           No. of orbitals :   116
            Alpha orbitals :    58
             Beta orbitals :    58
        Alpha frozen cores :     0
         Beta frozen cores :     0
     Alpha frozen virtuals :     0
      Beta frozen virtuals :     0
         Spin multiplicity : singlet 
    Number of AO functions :    58
       Number of AO shells :    22
        Use of symmetry is : off
      Symmetry adaption is : off
         Schwarz screening : 0.10D-09

          Correlation Information
          -----------------------
          Calculation type : Coupled-cluster singles & doubles                           
   Perturbative correction : none                                                        
            Max iterations :      300
        Residual threshold : 0.10D-06
     T(0) DIIS level shift : 0.00D+00
     L(0) DIIS level shift : 0.00D+00
     T(1) DIIS level shift : 0.00D+00
     L(1) DIIS level shift : 0.00D+00
     T(R) DIIS level shift : 0.00D+00
     T(I) DIIS level shift : 0.00D+00
   CC-T/L Amplitude update :  5-th order DIIS
                I/O scheme : Global Array Library
        L-threshold :  0.10D-06
        EOM-threshold :  0.10D-06
 no EOMCCSD initial starts read in
 TCE RESTART OPTIONS
 READ_INT:   F
 WRITE_INT:  F
 READ_TA:    F
 WRITE_TA:   F
 READ_XA:    F
 WRITE_XA:   F
 READ_IN3:   F
 WRITE_IN3:  F
 SLICE:      F
 D4D5:       F
 quantumc:   F
 qrotation:  F
 pwtce:      F
 qducc:      T
 nacto:                         0
 nrotv:                         0
 nrot:                          0

            Memory Information
            ------------------
          Available GA space size is    1610609372 doubles
          Available MA space size is    1610609772 doubles

 Maximum block size        32 doubles

 tile_dim =     27

 Block   Spin    Irrep     Size     Offset   Alpha
 -------------------------------------------------
   1    alpha     a      5 doubles       0       1
   2    beta      a      5 doubles       5       1
   3    alpha     a     26 doubles      10       3
   4    alpha     a     27 doubles      36       4
   5    beta      a     26 doubles      63       3
   6    beta      a     27 doubles      89       4

 Global array virtual files algorithm will be used

 Parallel file system coherency ......... OK

 Integral file          = ./H2O.aoints.0
 Record size in doubles =  65536        No. of integs per rec  =  43688
 Max. records in memory =     49        Max. records in file   = 248755
 No. of bits per label  =      8        No. of bits per value  =     64


 #quartets = 3.156D+04 #integrals = 6.147D+05 #direct =  0.0% #cached =100.0%


 Fock matrix recomputed
 1-e file size   =             3364
 1-e file name   = ./H2O.f1
 Cpu & wall time / sec            0.1            0.1
 4-electron integrals stored in orbital form

 v2    file size   =          3631290
 4-index algorithm nr.  13 is used
 imaxsize =       30
 imaxsize ichop =        0
 Cpu & wall time / sec            1.2            1.2
 T1-number-of-tasks                    2

 t1 file size   =              265
 t1 file name   = ./H2O.t1
 t1 file handle =       -998
 T2-number-of-boxes                    7

 t2 file size   =           122900
 t2 file name   = ./H2O.t2
 t2 file handle =       -996
CCSD iterations
 ---------------------------------------------------------
 Iter          Residuum       Correlation     Cpu    Wall 
 ---------------------------------------------------------
NEW TASK SCHEDULING
CCSD_T1_NTS --- OK
CCSD_T2_NTS --- OK
    1   1.2913995602813  -0.6414522070136     0.2     0.2
    2   2.2880300210463   0.6239279910285     0.2     0.2
    3   3.3343176831256  -0.3235098082370     0.2     0.2
    4   3.1775570247368   1.1485787590731     0.2     0.2
    5  50.9366022693086   8.0310044981814     0.2     0.2
 MICROCYCLE DIIS UPDATE:                    5                    5
    6   0.3809952661214  -0.2534566719554     0.2     0.2
    7   1.0337035495629  -0.4706702608989     0.2     0.2
    8   2.1602224070493   0.9371057774516     0.2     0.2
    9 265.8978036542752   5.4131003838043     0.2     0.2
   10************************************     0.2     0.2
 MICROCYCLE DIIS UPDATE:                   10                    5
   11   0.2010187891083  -0.3282297070502     0.2     0.2
   12   0.4753257379194  -0.4772083676535     0.2     0.2
   13   1.0378244885149   0.0591722976771     0.2     0.2
   14   1.4721911364800  -0.0341956205903     0.2     0.2
   15   1.4787683738335   0.4907257038626     0.2     0.2
 MICROCYCLE DIIS UPDATE:                   15                    5
   16   0.1300852296916  -0.3563854693779     0.2     0.2
   17   0.3299551621801  -0.4563293069991     0.2     0.2
   18   0.7903151034925  -0.1006317286630     0.2     0.2
   19   1.5866179363033   0.0961561625458     0.2     0.2
   20   1.4457330002699  -0.1018920875412     0.2     0.2
 MICROCYCLE DIIS UPDATE:                   20                    5
   21   0.0799290213541  -0.3802169656508     0.2     0.2
   22   0.1875839760742  -0.4360025392230     0.2     0.2
   23   0.4975605878318  -0.2588409199280     0.2     0.2
   24   1.3564248508571  -0.0940733914777     0.2     0.2
   25   1.6190858211114   0.5898787966067     0.2     0.2
 MICROCYCLE DIIS UPDATE:                   25                    5
   26   0.0388222059990  -0.3995856495942     0.2     0.2
   27   0.0775337002752  -0.4165849959739     0.2     0.2
   28   0.2245810032629  -0.3687674931382     0.2     0.2
   29   0.7350324094306  -0.3417600559032     0.2     0.2
   30   1.8153353799180   0.8212439893536     0.2     0.2
 MICROCYCLE DIIS UPDATE:                   30                    5
   31   0.0144341131562  -0.4082271784206     0.2     0.2
   32   0.0077253832396  -0.4090290564590     0.2     0.2
   33   0.0103165388660  -0.4085555187982     0.2     0.2
   34   0.0198814723460  -0.4109251217199     0.2     0.2
   35   0.0430542426686  -0.4048132188479     0.2     0.2
 MICROCYCLE DIIS UPDATE:                   35                    5
   36   0.0007784597932  -0.4094103375306     0.2     0.2
   37   0.0010462317113  -0.4092863355370     0.2     0.2
   38   0.0029252326166  -0.4094212989789     0.2     0.2
   39   0.0092855992993  -0.4091795212290     0.2     0.2
   40   0.0298456519887  -0.4097209820240     0.2     0.2
 MICROCYCLE DIIS UPDATE:                   40                    5
   41   0.0001291480880  -0.4093342156742     0.2     0.2
   42   0.0001133988142  -0.4093486773402     0.2     0.2
   43   0.0002152659863  -0.4093060022282     0.2     0.2
   44   0.0005638286083  -0.4094352858342     0.2     0.2
   45   0.0016369085530  -0.4090720320130     0.2     0.2
 MICROCYCLE DIIS UPDATE:                   45                    5
   46   0.0000354371588  -0.4093453195675     0.2     0.2
   47   0.0000371191661  -0.4093328943680     0.2     0.2
   48   0.0000702879957  -0.4093539581408     0.2     0.2
   49   0.0001604223836  -0.4093093609306     0.2     0.2
   50   0.0003962672288  -0.4094099373645     0.2     0.2
 MICROCYCLE DIIS UPDATE:                   50                    5
   51   0.0000089135506  -0.4093398108930     0.2     0.2
   52   0.0000109605391  -0.4093398441747     0.2     0.2
   53   0.0000298214845  -0.4093390622548     0.2     0.2
   54   0.0000936425237  -0.4093420564677     0.2     0.2
   55   0.0002984950891  -0.4093344651783     0.2     0.2
 MICROCYCLE DIIS UPDATE:                   55                    5
   56   0.0000024541032  -0.4093402252109     0.2     0.2
   57   0.0000023360111  -0.4093394046756     0.2     0.2
   58   0.0000047222737  -0.4093407148725     0.2     0.2
   59   0.0000121822905  -0.4093380361867     0.2     0.2
   60   0.0000340338418  -0.4093438794625     0.2     0.2
 MICROCYCLE DIIS UPDATE:                   60                    5
   61   0.0000006526918  -0.4093398369280     0.2     0.2
   62   0.0000006151562  -0.4093398743290     0.2     0.2
   63   0.0000013960978  -0.4093397261948     0.2     0.2
   64   0.0000042227771  -0.4093402123516     0.2     0.2
   65   0.0000134130102  -0.4093388276715     0.2     0.2
 MICROCYCLE DIIS UPDATE:                   65                    5
   66   0.0000001846026  -0.4093398798110     0.2     0.2
   67   0.0000001687391  -0.4093398153405     0.2     0.2
   68   0.0000003005902  -0.4093399153426     0.2     0.2
   69   0.0000006925671  -0.4093397151835     0.2     0.2
   70   0.0000017006586  -0.4093401529706     0.2     0.2
 MICROCYCLE DIIS UPDATE:                   70                    5
   71   0.0000000428222  -0.4093398483277     0.2     0.2
 -----------------------------------------------------------------
 Iterations converged
 CCSD correlation energy / hartree =        -0.409339848327735
 CCSD total energy / hartree       =       -76.125154733601917

 Singles contributions
     6a   (alpha) ---     5a   (alpha)       -0.0495214078

 Doubles contributions
     7a   (alpha)     8a   (alpha) ---     3a   (alpha)     4a   (alpha)        0.0275024827
     7a   (alpha)     8a   (alpha) ---     4a   (alpha)     3a   (alpha)       -0.0275024827
     8a   (alpha)     7a   (alpha) ---     3a   (alpha)     4a   (alpha)       -0.0275024827
     8a   (alpha)     7a   (alpha) ---     4a   (alpha)     3a   (alpha)        0.0275024827
     6a   (alpha)     6a   (beta ) ---     5a   (alpha)     5a   (beta )       -0.6402523276
     6a   (alpha)     7a   (beta ) ---     4a   (alpha)     5a   (beta )       -0.0211143902
     6a   (alpha)     7a   (beta ) ---     5a   (alpha)     4a   (beta )       -0.0217601549
     6a   (alpha)     8a   (beta ) ---     5a   (alpha)     3a   (beta )       -0.0202205590
     6a   (alpha)    21a   (beta ) ---     2a   (alpha)     5a   (beta )       -0.0254762560
     7a   (alpha)     6a   (beta ) ---     4a   (alpha)     5a   (beta )       -0.0217601549
     7a   (alpha)     6a   (beta ) ---     5a   (alpha)     4a   (beta )       -0.0211143902
     7a   (alpha)     7a   (beta ) ---     4a   (alpha)     4a   (beta )       -0.0853630351
     7a   (alpha)     8a   (beta ) ---     4a   (alpha)     3a   (beta )       -0.0367838067
     8a   (alpha)     6a   (beta ) ---     3a   (alpha)     5a   (beta )       -0.0202205590
     8a   (alpha)     7a   (beta ) ---     3a   (alpha)     4a   (beta )       -0.0367838067
     8a   (alpha)     8a   (beta ) ---     3a   (alpha)     3a   (beta )       -0.0517150714
    21a   (alpha)     6a   (beta ) ---     5a   (alpha)     2a   (beta )       -0.0254762560
 Ground state specification:
 exp(T)|Ref>~(1+T)|Ref>
 ------- a(p)+/a(q) strings ----------

 singles norm

 doubles norm

 Reference string
  0.84217490408571527      :(1a)+ (2a)+ (3a)+ (4a)+ (5a)+ (1b)+ (2b)+ (3b)+ (4b)+ (5b)+ |0>

 Singles strings

 Doubles strings
 -0.53920444260801126      :(6a)+ (6b)+ (5b)  (5a)  (1a)+ (2a)+ (3a)+ (4a)+ (5a)+ (1b)+ (2b)+ (3b)+ (4b)+ (5b)+ |0>
 -------------------------------------
 enrep_tce =    6.1498240362806627     
  EHF(total)         =       -75.71581489
  Shift (HFtot-HFA)  =         0.00000000
 ALL OCCUPIED ORBITALS ARE ACTIVE IN DUCC --> NO SHIFT
 Number of active orbitals                    8
 Number of active alpha electrons                    5
 Number of active beta electrons                    5
  nos                    10
  nvs                   106
 noas                     5
 nobs                     5
 nvas                    53
 nvbs                    53
 nactv                     3
 DUCC MODEL =                     6
 NONHF =  T
 F-T1 correlation    =   -4.4768243476320004E-003
 V-T1-T1 correlation =    6.2273044380904089E-004
 V-T2 correlation    =  -0.40548575442370977     
 Total correlation   =  -0.40933984832753273     
 F-T1(Ext) correlation         =   -1.5504893513505493E-003
 V-T1(Ext)-T1(Ext) correlation =    1.4408593864065833E-005
 V-T2(Ext) correlation         =  -0.18654206653800826     
 Total Ext correlation         =  -0.18807814729549474     
1-BODY TIME =  249.580 SECONDS.
  HHHH TIME =  247.191 SECONDS.
  PPPP TIME =    0.577 SECONDS.
  HHHP TIME =   16.448 SECONDS.
  PPPH TIME =    1.330 SECONDS.
  HPHP TIME =   15.363 SECONDS.
  HHPP TIME =    6.343 SECONDS.
 ONE-BODY UNITARY CHECK
 TWO-BODY UNITARY CHECK
                    1                    1                    1                    2   1.7293801730470516E-011
                    1                    1                    1                    4  -3.2858981612808785E-011
                    1                    1                    1                    5  -1.4286264195440366E-010
                    1                    1                    2                    1  -1.7293799827968859E-011
                    1                    1                    2                    4  -2.2213860956903146E-011
                    1                    1                    2                    5   4.3024902895827485E-010
                    1                    1                    4                    1   3.2858979197216610E-011
                    1                    1                    4                    2   2.2213860925898969E-011
                    1                    1                    4                    5  -6.0724778611147574E-011
                    1                    1                    5                    1   1.4286264217308700E-010
                    1                    1                    5                    2  -4.3024902895082692E-010
                    1                    1                    5                    4   6.0724778611373343E-011
                    1                    2                    1                    1  -1.7293801730470516E-011
                    1                    2                    1                    4  -1.2283586127426194E-010
                    1                    2                    1                    5   4.6133533104786295E-010
                    1                    2                    2                    1   1.9690671315686359E-010
                    1                    2                    2                    2  -7.9655843385874878E-010
                    1                    2                    2                    4   9.2277812127616876E-010
                    1                    2                    2                    5  -5.0658376837993402E-009
                    1                    2                    3                    3  -7.0613087806195875E-010
                    1                    2                    4                    1  -2.1577709237441400E-010
                    1                    2                    4                    2   6.9189020832083337E-010
                    1                    2                    4                    4  -5.8481303893182111E-010
                    1                    2                    4                    5   1.3728350958201047E-009
                    1                    2                    5                    1  -4.4362571255396333E-010
                    1                    2                    5                    2   4.8435996097186823E-009
                    1                    2                    5                    4  -1.1064347662625550E-009
                    1                    2                    5                    5  -3.8372410679318932E-011
                    1                    3                    2                    3   4.3844660541081382E-010
                    1                    3                    3                    1   1.5912777762139285E-009
                    1                    3                    3                    2  -7.0884423782058281E-009
                    1                    3                    3                    4   4.5255816802369786E-010
                    1                    3                    3                    5  -7.4980194980384801E-009
                    1                    3                    4                    3   9.4903822994707454E-010
                    1                    3                    5                    3   5.9756636527040496E-009
                    1                    4                    1                    1   3.2858981612808785E-011
                    1                    4                    1                    2   1.2283586127426194E-010
                    1                    4                    1                    5  -4.9197955605262411E-011
                    1                    4                    2                    1  -3.7580077244525611E-010
                    1                    4                    2                    2   5.2101498234395471E-010
                    1                    4                    2                    4   1.9878472531237312E-009
                    1                    4                    2                    5   1.2380986220787964E-009
                    1                    4                    3                    3  -6.1347333804780515E-011
                    1                    4                    4                    1   9.6295404983237631E-010
                    1                    4                    4                    2  -5.1440474293368288E-009
                    1                    4                    4                    4   2.0497748826365816E-010
                    1                    4                    4                    5  -7.0442951491476308E-009
                    1                    4                    5                    1   5.6111717702811426E-011
                    1                    4                    5                    2  -1.4390990743908330E-009
                    1                    4                    5                    4   6.0713208898267174E-009
                    1                    4                    5                    5   5.4284596320370511E-011
                    1                    5                    1                    1   1.4286264195440366E-010
                    1                    5                    1                    2  -4.6133533104786295E-010
                    1                    5                    1                    4   4.9197955605262411E-011
                    1                    5                    2                    1  -9.9453712626429436E-010
                    1                    5                    2                    2   3.1165331018354910E-009
                    1                    5                    2                    4  -3.6924356882619622E-010
                    1                    5                    2                    5  -6.2504054883227855E-010
                    1                    5                    3                    3   3.3604337005144699E-010
                    1                    5                    4                    1   2.3490054346098077E-010
                    1                    5                    4                    2  -7.9881613563453913E-010
                    1                    5                    4                    4   2.1857066052090295E-010
                    1                    5                    4                    5   1.2718481623777422E-009
                    1                    5                    5                    1  -3.9101283322295899E-009
                    1                    5                    5                    2   1.2698012927594982E-008
                    1                    5                    5                    4  -3.1498442049082698E-009
                    1                    5                    5                    5   1.2410884464448542E-011
                    1                    6                    1                    7  -6.0424579229056974E-010
                    1                    6                    1                    9  -3.7849973155701377E-010
                    1                    6                    1                   10  -1.6943412471659425E-010
                    1                    6                    2                    6   1.7352658199243365E-010
                    1                    6                    2                    7  -5.7246668863641936E-010
                    1                    6                    2                    9   1.0505724892459489E-009
                    1                    6                    2                   10   7.0199852723364098E-010
                    1                    6                    3                    8  -2.3122183091806026E-009
                    1                    6                    4                    6   3.4677108406988566E-011
                    1                    6                    4                    7   5.4213544244119394E-011
                    1                    6                    4                    9  -1.2850381314599701E-009
                    1                    6                    4                   10  -2.5432849775567767E-010
                    1                    6                    5                    6   1.2311724383040623E-010
                    1                    6                    5                    7  -1.4092994306269535E-010
                    1                    6                    5                    9   2.4035893472085105E-010
                    1                    6                    5                   10   4.9170671215237327E-009
                    1                    6                    6                    2   6.2153968083400457E-010
                    1                    6                    6                    4   3.4564071049736356E-010
                    1                    6                    6                    5   2.6571475922332333E-011
                    1                    6                    7                    1  -1.9082047053586848E-010
                    1                    6                    7                    2   5.7246668863641936E-010
                    1                    6                    7                    4  -1.0727863567101814E-009
                    1                    6                    7                    5  -2.7174949595275277E-010
                    1                    6                    8                    3   2.3122183091806026E-009
                    1                    6                    9                    1  -1.8180873473383485E-012
                    1                    6                    9                    2  -3.1999676346206041E-011
                    1                    6                    9                    4   1.2850381314599701E-009
                    1                    6                    9                    5   1.9360371950218188E-010
                    1                    6                   10                    1   1.9745404963855684E-011
                    1                    6                   10                    2  -2.8931908800135242E-010
                    1                    6                   10                    4  -1.7963415629794867E-010
                    1                    6                   10                    5  -4.9170671215237327E-009
                    1                    7                    1                    6   6.0424579229056974E-010
                    1                    7                    1                    9  -5.1047435375983774E-011
                    1                    7                    1                   10  -3.7534219135548774E-010
                    1                    7                    2                    6  -3.2265985022705834E-011
                    1                    7                    2                    7  -6.7022507335701142E-011
                    1                    7                    2                    9   2.6991829990725968E-009
                    1                    7                    2                   10   1.6652410164338938E-008
                    1                    7                    3                    8   1.3187315996143756E-009
                    1                    7                    4                    6  -2.6397312244061388E-010
                    1                    7                    4                    7   1.7062899079767213E-009
                    1                    7                    4                    9   5.2812947765046303E-010
                    1                    7                    4                   10   5.9192745757025156E-010
                    1                    7                    5                    6  -9.2904431456958259E-010
                    1                    7                    5                    7   2.1865662035765870E-008
                    1                    7                    5                    9  -8.5881700367810079E-010
                    1                    7                    5                   10  -5.2107784961896719E-009
                    1                    7                    6                    1  -6.2153965307842896E-010
                    1                    7                    6                    4  -7.1788261966909683E-011
                    1                    7                    6                    5   8.3667745756806078E-010
                    1                    7                    7                    1   2.2917379105535929E-010
                    1                    7                    7                    2  -7.2953592472613238E-010
                    1                    7                    7                    4  -1.7764048773627472E-009
                    1                    7                    7                    5  -2.1718247844451991E-008
                    1                    7                    8                    3  -2.0248624756080691E-009
                    1                    7                    9                    1   4.8195860496980103E-011
                    1                    7                    9                    2  -1.0143996532520350E-009
                    1                    7                    9                    4  -1.1129425402101045E-009
                    1                    7                    9                    5   7.8090763922563505E-010
                    1                    7                   10                    1   4.8541868788443132E-010
[...]
    8    8    2    8        0.0000000530
    8    1    3    1       -0.0391935693
    8    1    3    2       -0.0387252054
    8    1    3    3        0.0000000520
    8    1    3    4       -0.0074338383
    8    1    3    5        0.0007563935
    8    1    3    6        0.0009523265
    8    1    3    7        0.0099712062
    8    1    3    8       -0.0000000356
    8    2    3    1       -0.0206017884
    8    2    3    2       -0.0519950694
    8    2    3    3        0.0000000552
    8    2    3    4       -0.0019378541
    8    2    3    5        0.0014149000
    8    2    3    6        0.0019613858
    8    2    3    7        0.0110330254
    8    2    3    8       -0.0000000522
    8    3    3    1        0.0000000274
    8    3    3    2        0.0000000828
    8    3    3    3       -0.1980105379
    8    3    3    4       -0.0000000005
    8    3    3    5       -0.0000000059
    8    3    3    6       -0.0000000078
    8    3    3    7       -0.0000000290
    8    3    3    8        0.1556017905
    8    4    3    1       -0.0021634026
    8    4    3    2        0.0073185729
    8    4    3    3       -0.0000000344
    8    4    3    4       -0.0010699280
    8    4    3    5       -0.0000732587
    8    4    3    6        0.0000077023
    8    4    3    7        0.0154807801
    8    4    3    8        0.0000000039
    8    5    3    1        0.0004616251
    8    5    3    2        0.0024702780
    8    5    3    3       -0.0000000154
    8    5    3    4        0.0002042649
    8    5    3    5       -0.0064631715
    8    5    3    6        0.0069823727
    8    5    3    7       -0.0000919425
    8    5    3    8        0.0000000055
    8    6    3    1        0.0006933394
    8    6    3    2        0.0036969390
    8    6    3    3       -0.0000000166
    8    6    3    4        0.0004791237
    8    6    3    5        0.0078538663
    8    6    3    6       -0.0092753861
    8    6    3    7       -0.0002326595
    8    6    3    8        0.0000000050
    8    7    3    1        0.0070477413
    8    7    3    2        0.0243398626
    8    7    3    3       -0.0000000502
    8    7    3    4        0.0280619250
    8    7    3    5       -0.0001002248
    8    7    3    6       -0.0002028175
    8    7    3    7       -0.0165136499
    8    7    3    8        0.0000000099
    8    8    3    1       -0.0000000311
    8    8    3    2       -0.0000001696
    8    8    3    3        0.6589734919
    8    8    3    4       -0.0000000413
    8    8    3    5        0.0000000095
    8    8    3    6        0.0000000102
    8    8    3    7        0.0000000402
    8    8    3    8       -0.1731015662
    8    1    4    1        0.0000000050
    8    1    4    2       -0.0000000144
    8    1    4    3       -0.0073657306
    8    1    4    4       -0.0000000141
    8    1    4    6        0.0000000002
    8    1    4    7        0.0000000089
    8    1    4    8        0.0019492174
    8    2    4    1       -0.0000000068
    8    2    4    2       -0.0000000068
    8    2    4    3       -0.0018746497
    8    2    4    4       -0.0000000094
    8    2    4    5        0.0000000003
    8    2    4    6        0.0000000007
    8    2    4    7        0.0000000187
    8    2    4    8        0.0027635997
    8    3    4    1        0.0035943646
    8    3    4    2        0.0112402021
    8    3    4    3       -0.0000000016
    8    3    4    4       -0.1286918735
    8    3    4    5       -0.0016239854
    8    3    4    6       -0.0008831576
    8    3    4    7        0.1159044814
    8    3    4    8        0.0000000039
    8    4    4    1        0.0000000065
    8    4    4    2        0.0000000042
    8    4    4    3       -0.0009233833
    8    4    4    4       -0.0000000298
    8    4    4    5       -0.0000000007
    8    4    4    6       -0.0000000007
    8    4    4    7        0.0000000041
    8    4    4    8        0.0200590971
    8    5    4    1        0.0000000004
    8    5    4    2        0.0000000013
    8    5    4    3        0.0001552606
    8    5    4    4       -0.0000000094
    8    5    4    5       -0.0000000012
    8    5    4    6        0.0000000013
    8    5    4    7        0.0000000043
    8    5    4    8        0.0003916350
    8    6    4    1        0.0000000004
    8    6    4    2        0.0000000017
    8    6    4    3        0.0005191739
    8    6    4    4       -0.0000000086
    8    6    4    5        0.0000000008
    8    6    4    6       -0.0000000014
    8    6    4    7        0.0000000031
    8    6    4    8        0.0003801555
    8    7    4    1       -0.0000000106
    8    7    4    2       -0.0000000085
    8    7    4    3        0.0272918697
    8    7    4    4       -0.0000000159
    8    7    4    5        0.0000000007
    8    7    4    6        0.0000000004
    8    7    4    7        0.0000000066
    8    7    4    8       -0.0010302195
    8    8    4    1       -0.0050787480
    8    8    4    2        0.0112021550
    8    8    4    3       -0.0000000413
    8    8    4    4        0.5772409922
    8    8    4    5        0.0035785204
    8    8    4    6        0.0028824588
    8    8    4    7       -0.1360257754
    8    8    4    8       -0.0000000369
    8    1    5    1       -0.0000000021
    8    1    5    2        0.0000000006
    8    1    5    3        0.0007072300
    8    1    5    5       -0.0000000055
    8    1    5    6        0.0000000055
    8    1    5    8       -0.0006629854
    8    2    5    1       -0.0000000004
    8    2    5    2        0.0000000011
    8    2    5    3        0.0017032580
    8    2    5    4        0.0000000004
    8    2    5    5       -0.0000000123
    8    2    5    6        0.0000000062
    8    2    5    8       -0.0007889257
    8    3    5    1       -0.0008710878
    8    3    5    2        0.0054944167
    8    3    5    3       -0.0000000060
    8    3    5    4       -0.0017165958
    8    3    5    5       -0.0925021937
    8    3    5    6        0.0903659270
    8    3    5    7        0.0011939827
    8    3    5    8        0.0000000055
    8    4    5    2        0.0000000011
    8    4    5    3       -0.0001271602
    8    4    5    4       -0.0000000006
    8    4    5    5       -0.0000000120
    8    4    5    6        0.0000000142
    8    4    5    7        0.0000000005
    8    4    5    8        0.0003916350
    8    5    5    1        0.0000000060
    8    5    5    2        0.0000000002
    8    5    5    3       -0.0058566809
    8    5    5    4       -0.0000000013
    8    5    5    5       -0.0000000072
    8    5    5    6        0.0000000073
    8    5    5    7       -0.0000000020
    8    5    5    8        0.0098133852
    8    6    5    1       -0.0000000065
    8    6    5    2       -0.0000000024
    8    6    5    3        0.0067804172
    8    6    5    4        0.0000000009
    8    6    5    5        0.0000000064
    8    6    5    6        0.0000000168
    8    6    5    7        0.0000000023
    8    6    5    8       -0.0085242750
    8    7    5    1       -0.0000000002
    8    7    5    2       -0.0000000007
    8    7    5    3       -0.0000645070
    8    7    5    4        0.0000000008
    8    7    5    5       -0.0000000022
    8    7    5    6        0.0000000028
    8    7    5    7       -0.0000000008
    8    7    5    8        0.0003384589
    8    8    5    1        0.0012658589
    8    8    5    2       -0.0086081858
    8    8    5    3        0.0000000095
    8    8    5    4        0.0035785204
    8    8    5    5        0.4077480592
    8    8    5    6       -0.2114781819
    8    8    5    7       -0.0009192273
    8    8    5    8       -0.0000000144
    8    1    6    1       -0.0000000020
    8    1    6    2        0.0000000012
    8    1    6    3        0.0009347297
    8    1    6    4        0.0000000002
    8    1    6    5        0.0000000054
    8    1    6    6       -0.0000000058
    8    1    6    7       -0.0000000004
    8    1    6    8       -0.0011089125
    8    2    6    1        0.0000000002
    8    2    6    2        0.0000000042
    8    2    6    3        0.0026279016
    8    2    6    4        0.0000000008
    8    2    6    5        0.0000000069
    8    2    6    6       -0.0000000126
    8    2    6    7       -0.0000000005
    8    2    6    8       -0.0012903428
    8    3    6    1       -0.0006189959
    8    3    6    2        0.0067218310
    8    3    6    3       -0.0000000075
    8    3    6    4       -0.0010849768
    8    3    6    5        0.0927684628
    8    3    6    6       -0.1022412575
    8    3    6    7        0.0010679537
    8    3    6    8        0.0000000050
    8    4    6    2        0.0000000014
    8    4    6    3       -0.0000645214
    8    4    6    4       -0.0000000007
    8    4    6    5        0.0000000141
    8    4    6    6       -0.0000000134
    8    4    6    7        0.0000000003
    8    4    6    8        0.0003801555
    8    5    6    1       -0.0000000059
    8    5    6    2       -0.0000000009
    8    5    6    3        0.0101328434
    8    5    6    4        0.0000000018
    8    5    6    5        0.0000000067
    8    5    6    6       -0.0000000033
    8    5    6    7        0.0000000016
    8    5    6    8       -0.0085242750
    8    6    6    1        0.0000000071
    8    6    6    2        0.0000000038
    8    6    6    3       -0.0079181837
    8    6    6    4       -0.0000000014
    8    6    6    5        0.0000000170
    8    6    6    6        0.0000000055
    8    6    6    7       -0.0000000027
    8    6    6    8        0.0089570722
    8    7    6    1       -0.0000000004
    8    7    6    2       -0.0000000013
    8    7    6    3       -0.0002618279
    8    7    6    4        0.0000000005
    8    7    6    5        0.0000000023
    8    7    6    6       -0.0000000024
    8    7    6    7       -0.0000000008
    8    7    6    8        0.0006878306
    8    8    6    1        0.0011289644
    8    8    6    2       -0.0087709787
    8    8    6    3        0.0000000102
    8    8    6    4        0.0028824588
    8    8    6    5       -0.2114781819
    8    8    6    6        0.4106927145
    8    8    6    7       -0.0005540476
    8    8    6    8       -0.0000000153
    8    1    7    1       -0.0000000142
    8    1    7    2        0.0000000169
    8    1    7    3        0.0097342629
    8    1    7    4        0.0000000074
    8    1    7    6       -0.0000000004
    8    1    7    7       -0.0000000196
    8    1    7    8       -0.0101584040
    8    2    7    1        0.0000000090
    8    2    7    2        0.0000000300
    8    2    7    3        0.0115942992
    8    2    7    4        0.0000000223
    8    2    7    6       -0.0000000004
    8    2    7    7       -0.0000000024
    8    2    7    8       -0.0050037253
    8    3    7    1       -0.0059672872
    8    3    7    2        0.0068689893
    8    3    7    3       -0.0000000258
    8    3    7    4        0.1107822527
    8    3    7    5        0.0010905720
    8    3    7    6        0.0011355106
    8    3    7    7       -0.1520254879
    8    3    7    8        0.0000000099
    8    4    7    1       -0.0000000091
    8    4    7    2        0.0000000009
    8    4    7    3        0.0160469306
    8    4    7    4        0.0000000033
    8    4    7    5        0.0000000003
    8    4    7    7       -0.0000000263
    8    4    7    8       -0.0010302195
    8    5    7    1       -0.0000000006
    8    5    7    2       -0.0000000009
    8    5    7    3       -0.0000538278
    8    5    7    4        0.0000000040
    8    5    7    5       -0.0000000032
    8    5    7    6        0.0000000025
    8    5    7    7       -0.0000000097
    8    5    7    8        0.0003384589
    8    6    7    1       -0.0000000006
    8    6    7    2       -0.0000000012
    8    6    7    3       -0.0002762843
    8    6    7    4        0.0000000029
    8    6    7    5        0.0000000027
    8    6    7    6       -0.0000000026
    8    6    7    7       -0.0000000087
    8    6    7    8        0.0006878306
    8    7    7    1        0.0000000154
    8    7    7    2        0.0000000146
    8    7    7    3       -0.0168372620
    8    7    7    4        0.0000000055
    8    7    7    5       -0.0000000008
    8    7    7    6       -0.0000000008
    8    7    7    7       -0.0000000135
    8    7    7    8        0.0300430602
    8    8    7    1        0.0074036034
    8    8    7    2       -0.0119982636
    8    8    7    3        0.0000000402
    8    8    7    4       -0.1360257754
    8    8    7    5       -0.0009192273
    8    8    7    6       -0.0005540476
    8    8    7    7        0.5932945872
    8    8    7    8       -0.0000000416
    8    1    8    1        0.0544350998
    8    1    8    2        0.0269593476
    8    1    8    3       -0.0000000354
    8    1    8    4        0.0018508795
    8    1    8    5       -0.0006915974
    8    1    8    6       -0.0010863508
    8    1    8    7       -0.0099844413
    8    1    8    8        0.0000000486
    8    2    8    1        0.0269593476
    8    2    8    2        0.0510118505
    8    2    8    3       -0.0000000373
    8    2    8    4        0.0023936201
    8    2    8    5       -0.0009355710
    8    2    8    6       -0.0013145737
    8    2    8    7       -0.0058592431
    8    2    8    8        0.0000000530
    8    3    8    1       -0.0000000354
    8    3    8    2       -0.0000000373
    8    3    8    3        0.1488077470
    8    3    8    4        0.0000000064
    8    3    8    5        0.0000000043
    8    3    8    6        0.0000000045
    8    3    8    7        0.0000000084
    8    3    8    8       -0.1731015662
    8    4    8    1        0.0018508795
    8    4    8    2        0.0023936201
    8    4    8    3        0.0000000064
    8    4    8    4        0.0194611292
    8    4    8    5        0.0004360586
    8    4    8    6        0.0004188709
    8    4    8    7       -0.0009685289
    8    4    8    8       -0.0000000369
    8    5    8    1       -0.0006915974
    8    5    8    2       -0.0009355710
    8    5    8    3        0.0000000043
    8    5    8    4        0.0004360586
    8    5    8    5        0.0111657029
    8    5    8    6       -0.0096646190
    8    5    8    7        0.0003945151
    8    5    8    8       -0.0000000144
    8    6    8    1       -0.0010863508
    8    6    8    2       -0.0013145737
    8    6    8    3        0.0000000045
    8    6    8    4        0.0004188709
    8    6    8    5       -0.0096646190
    8    6    8    6        0.0090192071
    8    6    8    7        0.0006792760
    8    6    8    8       -0.0000000153
    8    7    8    1       -0.0099844413
    8    7    8    2       -0.0058592431
    8    7    8    3        0.0000000084
    8    7    8    4       -0.0009685289
    8    7    8    5        0.0003945151
    8    7    8    6        0.0006792760
    8    7    8    7        0.0300537049
    8    7    8    8       -0.0000000416
    8    8    8    1        0.0000000486
    8    8    8    2        0.0000000530
    8    8    8    3       -0.1731015662
    8    8    8    4       -0.0000000369
    8    8    8    5       -0.0000000144
    8    8    8    6       -0.0000000153
    8    8    8    7       -0.0000000416
    8    8    8    8        0.6147989467
 end_two_electron_integrals

 Parallel integral file used      15 records with       0 large values


 Task  times  cpu:      562.7s     wall:      564.5s


                                NWChem Input Module
                                -------------------


 Summary of allocated global arrays
-----------------------------------
  No active global arrays


MA_summarize_allocated_blocks: starting scan ...
MA_summarize_allocated_blocks: scan completed: 0 heap blocks, 0 stack blocks
MA usage statistics:

	allocation statistics:
					      heap	     stack
					      ----	     -----
	current number of blocks	         0	         0
	maximum number of blocks	        18	        42
	current total bytes		         0	         0
	maximum total bytes		  25775960	4725685720
	maximum total K-bytes		     25776	   4725686
	maximum total M-bytes		        26	      4726


                                     CITATION
                                     --------
                Please cite the following reference when publishing
                           results obtained with NWChem:

          E. Apra, E. J. Bylaska, W. A. de Jong, N. Govind, K. Kowalski,
       T. P. Straatsma, M. Valiev, H. J. J. van Dam, Y. Alexeev, J. Anchell,
       V. Anisimov, F. W. Aquino, R. Atta-Fynn, J. Autschbach, N. P. Bauman,
     J. C. Becca, D. E. Bernholdt, K. Bhaskaran-Nair, S. Bogatko, P. Borowski,
         J. Boschen, J. Brabec, A. Bruner, E. Cauet, Y. Chen, G. N. Chuev,
      C. J. Cramer, J. Daily, M. J. O. Deegan, T. H. Dunning Jr., M. Dupuis,
   K. G. Dyall, G. I. Fann, S. A. Fischer, A. Fonari, H. Fruchtl, L. Gagliardi,
      J. Garza, N. Gawande, S. Ghosh, K. Glaesemann, A. W. Gotz, J. Hammond,
       V. Helms, E. D. Hermes, K. Hirao, S. Hirata, M. Jacquelin, L. Jensen,
   B. G. Johnson, H. Jonsson, R. A. Kendall, M. Klemm, R. Kobayashi, V. Konkov,
      S. Krishnamoorthy, M. Krishnan, Z. Lin, R. D. Lins, R. J. Littlefield,
      A. J. Logsdail, K. Lopata, W. Ma, A. V. Marenich, J. Martin del Campo,
   D. Mejia-Rodriguez, J. E. Moore, J. M. Mullin, T. Nakajima, D. R. Nascimento,
    J. A. Nichols, P. J. Nichols, J. Nieplocha, A. Otero-de-la-Roza, B. Palmer,
    A. Panyala, T. Pirojsirikul, B. Peng, R. Peverati, J. Pittner, L. Pollack,
   R. M. Richard, P. Sadayappan, G. C. Schatz, W. A. Shelton, D. W. Silverstein,
   D. M. A. Smith, T. A. Soares, D. Song, M. Swart, H. L. Taylor, G. S. Thomas,
            V. Tipparaju, D. G. Truhlar, K. Tsemekhman, T. Van Voorhis,
      A. Vazquez-Mayagoitia, P. Verma, O. Villa, A. Vishnu, K. D. Vogiatzis,
        D. Wang, J. H. Weare, M. J. Williamson, T. L. Windus, K. Wolinski,
        A. T. Wong, Q. Wu, C. Yang, Q. Yu, M. Zacharias, Z. Zhang, Y. Zhao,
                                and R. J. Harrison
                        "NWChem: Past, present, and future
                         J. Chem. Phys. 152, 184102 (2020)
                               doi:10.1063/5.0004997

                                      AUTHORS
                                      -------
  E. Apra, E. J. Bylaska, N. Govind, K. Kowalski, M. Valiev, D. Mejia-Rodriguez,
       A. Kunitsa, N. P. Bauman, A. Panyala, W. A. de Jong, T. P. Straatsma,
        H. J. J. van Dam, D. Wang, T. L. Windus, J. Hammond, J. Autschbach,
    K. Bhaskaran-Nair, J. Brabec, K. Lopata, S. A. Fischer, S. Krishnamoorthy,
     M. Jacquelin, W. Ma, M. Klemm, O. Villa, Y. Chen, V. Anisimov, F. Aquino,
    S. Hirata, M. T. Hackler, Eric Hermes, L. Jensen, J. E. Moore, J. C. Becca,
      V. Konjkov, T. Risthaus, M. Malagoli, A. Marenich, A. Otero-de-la-Roza,
        J. Mullin, P. Nichols, R. Peverati, J. Pittner, Y. Zhao, P.-D. Fan,
        A. Fonari, M. J. Williamson, R. J. Harrison, J. R. Rehr, M. Dupuis,
     D. Silverstein, D. M. A. Smith, J. Nieplocha, V. Tipparaju, M. Krishnan,
     B. E. Van Kuiken, A. Vazquez-Mayagoitia, M. Swart, Q. Wu, T. Van Voorhis,
     A. A. Auer, M. Nooijen, L. D. Crosby, E. Brown, G. Cisneros, G. I. Fann,
   H. Fruchtl, J. Garza, K. Hirao, R. A. Kendall, J. A. Nichols, K. Tsemekhman,
    K. Wolinski, J. Anchell, D. E. Bernholdt, P. Borowski, T. Clark, D. Clerc,
   H. Dachsel, M. J. O. Deegan, K. Dyall, D. Elwood, E. Glendening, M. Gutowski,
   A. C. Hess, J. Jaffe, B. G. Johnson, J. Ju, R. Kobayashi, R. Kutteh, Z. Lin,
   R. Littlefield, X. Long, B. Meng, T. Nakajima, S. Niu, L. Pollack, M. Rosing,
   K. Glaesemann, G. Sandrone, M. Stave, H. Taylor, G. Thomas, J. H. van Lenthe,
                               A. T. Wong, Z. Zhang.

 Total times  cpu:      568.0s     wall:      574.2s
