 argument  1 = input.nw
  NWChem w/ OpenMP: maximum threads =    1



============================== echo of input deck ==============================
 echo
 start HF
 title "HF"

 memory total 24 gb

 geometry units bohr
 symmetry c1
        F  0.00000000  0.00000000  0.00000000
        H  0.00000000  3.205125  0.00000000
 end

 basis spherical
   * library cc-pVTZ
 end

 mcscf
   active  8
   actelec 10
   multiplicity 1
   maxiter 40
   vectors input HF.mos
   vectors output HF.mos
 end

 task mcscf

 scf
   vectors input HF.mos
   vectors output HF-trash.mos
   noscf
 end

 tce
   2eorb
   2emet 13
   ccsd
   maxiter 500
 end

# set tce:print_integrals T
# set tce:qorb 8
# set tce:qela 5
# set tce:qelb 5

 set tce:qducc T
 set tce:nactv 3
 set tce:nonhf T
 set tce:ducc_model 6

 set tce:printtol 0.02

 task tce
================================================================================


                                         
                                         


             Northwest Computational Chemistry Package (NWChem) 7.0.1
             --------------------------------------------------------


                    Environmental Molecular Sciences Laboratory
                       Pacific Northwest National Laboratory
                                Richland, WA 99352

                              Copyright (c) 1994-2020
                       Pacific Northwest National Laboratory
                            Battelle Memorial Institute

             NWChem is an open-source computational chemistry package
                        distributed under the terms of the
                      Educational Community License (ECL) 2.0
             A copy of the license is included with this distribution
                              in the LICENSE.TXT file

                                  ACKNOWLEDGMENT
                                  --------------

            This software and its documentation were developed at the
            EMSL at Pacific Northwest National Laboratory, a multiprogram
            national laboratory, operated for the U.S. Department of Energy
            by Battelle under Contract Number DE-AC05-76RL01830. Support
            for this work was provided by the Department of Energy Office
            of Biological and Environmental Research, Office of Basic
            Energy Sciences, and the Office of Advanced Scientific Computing.


           Job information
           ---------------

    hostname        = WE46210
    program         = /home/baum612/code/nwchem/bin/LINUX64/nwchem
    date            = Tue May 21 14:33:47 2024

    compiled        = Tue_Apr_30_12:43:26_2024
    source          = /home/baum612/code/nwchem
    nwchem branch   = 7.0.0
    nwchem revision = nwchem_on_git-4191-g39d87d64de
    ga revision     = 5.8.1
    use scalapack   = F
    input           = input.nw
    prefix          = HF.
    data base       = ./HF.db
    status          = startup
    nproc           =        1
    time left       =     -1s



           Memory information
           ------------------

    heap     =  805306366 doubles =   6144.0 Mbytes
    stack    =  805306363 doubles =   6144.0 Mbytes
    global   = 1610612736 doubles =  12288.0 Mbytes (distinct from heap & stack)
    total    = 3221225465 doubles =  24576.0 Mbytes
    verify   = yes
    hardfail = no 


           Directory information
           ---------------------

  0 permanent = .
  0 scratch   = .




                                NWChem Input Module
                                -------------------


                                        HF
                                        --
 Turning off AUTOSYM since
 SYMMETRY directive was detected!


          ------
          auto-z
          ------
     1 autoz failed with cvr_scaling = 1.2 changing to 1.3
     2 autoz failed with cvr_scaling = 1.3 changing to 1.4
     3 autoz failed with cvr_scaling = 1.4 changing to 1.5
     4 autoz failed with cvr_scaling = 1.5 changing to 1.6
     5 autoz failed with cvr_scaling = 1.6 changing to 1.7

 AUTOZ failed to generate good internal coordinates.
 Cartesian coordinates will be used in optimizations.



                             Geometry "geometry" -> ""
                             -------------------------

 Output coordinates in a.u. (scale by  1.000000000 to convert to a.u.)

  No.       Tag          Charge          X              Y              Z
 ---- ---------------- ---------- -------------- -------------- --------------
    1 F                    9.0000     0.00000000    -0.32051250     0.00000000
    2 H                    1.0000     0.00000000     2.88461250     0.00000000

      Atomic Mass 
      ----------- 

      F                 18.998400
      H                  1.007825


 Effective nuclear repulsion energy (a.u.)       2.8080028080

            Nuclear Dipole moment (a.u.) 
            ----------------------------
        X                 Y               Z
 ---------------- ---------------- ----------------
     0.0000000000     0.0000000000     0.0000000000


            XYZ format geometry
            -------------------
     2
 geometry
 F                     0.00000000    -0.16960792     0.00000000
 H                     0.00000000     1.52647131     0.00000000



 Summary of "ao basis" -> "" (spherical)
 ------------------------------------------------------------------------------
       Tag                 Description            Shells   Functions and Types
 ---------------- ------------------------------  ------  ---------------------
 *                          cc-pVTZ                   on all atoms 


                      Basis "ao basis" -> "ao basis" (spherical)
                      -----
  F (Fluorine)
  ------------
            Exponent  Coefficients 
       -------------- ---------------------------------------------------------
  1 S  1.95000000E+04  0.000507
  1 S  2.92300000E+03  0.003923
  1 S  6.64500000E+02  0.020200
  1 S  1.87500000E+02  0.079010
  1 S  6.06200000E+01  0.230439
  1 S  2.14200000E+01  0.432872
  1 S  7.95000000E+00  0.349964
  1 S  8.81500000E-01 -0.007892

  2 S  1.95000000E+04 -0.000117
  2 S  2.92300000E+03 -0.000912
  2 S  6.64500000E+02 -0.004717
  2 S  1.87500000E+02 -0.019086
  2 S  6.06200000E+01 -0.059655
  2 S  2.14200000E+01 -0.140010
  2 S  7.95000000E+00 -0.176782
  2 S  8.81500000E-01  0.605043

  3 S  2.25700000E+00  1.000000

  4 S  3.04100000E-01  1.000000

  5 P  4.38800000E+01  0.016665
  5 P  9.92600000E+00  0.104472
  5 P  2.93000000E+00  0.317260

  6 P  9.13200000E-01  1.000000

  7 P  2.67200000E-01  1.000000

  8 D  3.10700000E+00  1.000000

  9 D  8.55000000E-01  1.000000

 10 F  1.91700000E+00  1.000000

  H (Hydrogen)
  ------------
            Exponent  Coefficients 
       -------------- ---------------------------------------------------------
  1 S  3.38700000E+01  0.006068
  1 S  5.09500000E+00  0.045308
  1 S  1.15900000E+00  0.202822

  2 S  3.25800000E-01  1.000000

  3 S  1.02700000E-01  1.000000

  4 P  1.40700000E+00  1.000000

  5 P  3.88000000E-01  1.000000

  6 D  1.05700000E+00  1.000000



 Summary of "ao basis" -> "ao basis" (spherical)
 ------------------------------------------------------------------------------
       Tag                 Description            Shells   Functions and Types
 ---------------- ------------------------------  ------  ---------------------
 F                          cc-pVTZ                 10       30   4s3p2d1f
 H                          cc-pVTZ                  6       14   3s2p1d



                            NWChem Direct MCSCF Module
                            --------------------------


                                        HF


     -----------------------------------
       Basis functions:             44
       Inactive shells:              0
       Active shells:                8
       Active electrons:            10
       Symmetry:                    a       
       Multiplicity:                 1
       Orbital rotations:          288
     -----------------------------------

     -----------------------------------
       E2 extrapolation:             F
       Conjugacy:                    T
       Micro CI relax:               T
       Canonical orbitals:           T
       Maximum iterations:          40
       Converge threshold:    1.00E-04
       Conjugacy resets:            20
       Initial levelshift:        0.10
     -----------------------------------

 Loading old vectors from job with title :

HF


   input molecular orbitals = ./HF.mos
  output molecular orbtials = ./HF.mos

       No. of determinants:          3136


  Starting Orbital Energies
   -26.332037    -1.537739    -0.655226    -0.655225    -0.569919    -0.108519
    -0.005857    -0.003311     0.378266     0.728307     0.728307     0.925625
     1.004964     1.004964     1.555895     2.253111     2.253111     2.267977
     2.267977     2.594427     3.402982     3.402982     3.500283     3.500283
     3.594964     3.869595     3.869595     4.137033     5.071954     5.071954
     5.187139     7.373630     7.373630     7.378409     7.378409     7.402860
     7.402860     7.425417     8.523761     8.845482     8.845482     8.870154
     8.870154     9.785861

  Orbital Symmetry Irreps
a    a    a    a    a    a    a    a    a    a    a    a    a    a    a   
a    a    a    a    a    a    a    a    a    a    a    a    a    a    a   
a    a    a    a    a    a    a    a    a    a    a    a    a    a   

 Integral file          = ./HF.aoints.0
 Record size in doubles =  65536        No. of integs per rec  =  43688
 Max. records in memory =     18        Max. records in file   = 250313
 No. of bits per label  =      8        No. of bits per value  =     64


 #quartets = 9.316D+03 #integrals = 1.250D+05 #direct =  0.0% #cached =100.0%




          %%%%% MacroIteration   1 %%%%%


          Number of sigma calls:       30
                       o<<<<< (aa):             0.00
                       o<<<<< (bb):             0.01
                       o<<<<< (ab):             0.08
                       o<<<<< (total)           0.09
                       o<<<<< (aa) ff           0.00
                       o<<<<< (aa) gop          0.00
                       o<<<<< (aa) dot          0.00
                       o<<<<< (ab) str          0.00
                       o<<<<< (ab) gath         0.00
                       o<<<<< (ab) dotab        0.00
                       o<<<<< (ab) scat         0.00
                       o<<<<< (ab) sync         0.00
                       o<<<<< Density           0.01
                       o<<<<< Density one       0.00
                       o<<<<< Density two       0.00
                       o<<<<< Density ab        0.01
                       o<<<<< Spin adapt        0.33
                       o<<<<< Symm adapt        0.00

                       o<<<<< (ab) max sync:      0.00

           >>>| Valence CI:           -102.772105052310
           >>>| MCSCF energy:          -99.964102244307
           >>>| Gradient norm:          0.283850168D-01
     --- Warning:   34 Hessian diagonals < 0.05 ---

                              ----- Line search ------

        step       energy         lsg     num-lsg   num-lsh   lsrat    time
      ------- ---------------- --------- --------- --------- ------- --------
       0.0000     -99.96410224 -1.19D-04  0.00D+00  0.00D+00 0.0D+00      0.7

          Number of sigma calls:       30
                       o<<<<< (aa):             0.00
                       o<<<<< (bb):             0.01
                       o<<<<< (ab):             0.08
                       o<<<<< (total)           0.09
                       o<<<<< (aa) ff           0.00
                       o<<<<< (aa) gop          0.00
                       o<<<<< (aa) dot          0.00
                       o<<<<< (ab) str          0.00
                       o<<<<< (ab) gath         0.00
                       o<<<<< (ab) dotab        0.00
                       o<<<<< (ab) scat         0.00
                       o<<<<< (ab) sync         0.00
                       o<<<<< Density           0.01
                       o<<<<< Density one       0.00
                       o<<<<< Density two       0.00
                       o<<<<< Density ab        0.00
                       o<<<<< Spin adapt        0.40
                       o<<<<< Symm adapt        0.00

                       o<<<<< (ab) max sync:      0.00
       1.0000     -99.96417284 -2.23D-05 -2.24D-05  9.64D-05 1.9D-01      1.3

          Number of sigma calls:       26
                       o<<<<< (aa):             0.00
                       o<<<<< (bb):             0.00
                       o<<<<< (ab):             0.07
                       o<<<<< (total)           0.07
                       o<<<<< (aa) ff           0.00
                       o<<<<< (aa) gop          0.00
                       o<<<<< (aa) dot          0.00
                       o<<<<< (ab) str          0.00
                       o<<<<< (ab) gath         0.00
                       o<<<<< (ab) dotab        0.00
                       o<<<<< (ab) scat         0.00
                       o<<<<< (ab) sync         0.00
                       o<<<<< Density           0.01
                       o<<<<< Density one       0.00
                       o<<<<< Density two       0.00
                       o<<<<< Density ab        0.01
                       o<<<<< Spin adapt        0.36
                       o<<<<< Symm adapt        0.00

                       o<<<<< (ab) max sync:      0.00
       1.2311     -99.96417540  1.42D-07  1.38D-07  9.71D-05 1.2D-03      1.8
     --- Orbitals canonicalized ---



          %%%%% MacroIteration   2 %%%%%


          Number of sigma calls:       21
                       o<<<<< (aa):             0.00
                       o<<<<< (bb):             0.00
                       o<<<<< (ab):             0.06
                       o<<<<< (total)           0.07
                       o<<<<< (aa) ff           0.00
                       o<<<<< (aa) gop          0.00
                       o<<<<< (aa) dot          0.00
                       o<<<<< (ab) str          0.00
                       o<<<<< (ab) gath         0.00
                       o<<<<< (ab) dotab        0.00
                       o<<<<< (ab) scat         0.00
                       o<<<<< (ab) sync         0.00
                       o<<<<< Density           0.01
                       o<<<<< Density one       0.00
                       o<<<<< Density two       0.00
                       o<<<<< Density ab        0.01
                       o<<<<< Spin adapt        0.17
                       o<<<<< Symm adapt        0.00

                       o<<<<< (ab) max sync:      0.00

           >>>| Valence CI:           -102.772178207913
           >>>| MCSCF energy:          -99.964175399911
           >>>| Gradient norm:          0.638735511D-02
     --- Warning:   59 Hessian diagonals < 0.05 ---
     --- Conjugacy reset ---

                              ----- Line search ------

        step       energy         lsg     num-lsg   num-lsh   lsrat    time
      ------- ---------------- --------- --------- --------- ------- --------
       0.0000     -99.96417540 -5.48D-06  0.00D+00  0.00D+00 0.0D+00      2.1

          Number of sigma calls:       18
                       o<<<<< (aa):             0.00
                       o<<<<< (bb):             0.00
                       o<<<<< (ab):             0.05
                       o<<<<< (total)           0.06
                       o<<<<< (aa) ff           0.00
                       o<<<<< (aa) gop          0.00
                       o<<<<< (aa) dot          0.00
                       o<<<<< (ab) str          0.00
                       o<<<<< (ab) gath         0.00
                       o<<<<< (ab) dotab        0.00
                       o<<<<< (ab) scat         0.00
                       o<<<<< (ab) sync         0.00
                       o<<<<< Density           0.01
                       o<<<<< Density one       0.00
                       o<<<<< Density two       0.00
                       o<<<<< Density ab        0.01
                       o<<<<< Spin adapt        0.18
                       o<<<<< Symm adapt        0.00

                       o<<<<< (ab) max sync:      0.00
       1.0000     -99.96417877 -1.25D-06 -1.25D-06  4.23D-06 2.3D-01      2.4

          Number of sigma calls:       17
                       o<<<<< (aa):             0.00
                       o<<<<< (bb):             0.00
                       o<<<<< (ab):             0.05
                       o<<<<< (total)           0.06
                       o<<<<< (aa) ff           0.00
                       o<<<<< (aa) gop          0.00
                       o<<<<< (aa) dot          0.00
                       o<<<<< (ab) str          0.00
                       o<<<<< (ab) gath         0.00
                       o<<<<< (ab) dotab        0.00
                       o<<<<< (ab) scat         0.00
                       o<<<<< (ab) sync         0.00
                       o<<<<< Density           0.01
                       o<<<<< Density one       0.00
                       o<<<<< Density two       0.00
                       o<<<<< Density ab        0.00
                       o<<<<< Spin adapt        0.18
                       o<<<<< Symm adapt        0.00

                       o<<<<< (ab) max sync:      0.00
       1.2964     -99.96417896  6.67D-10  6.39D-10  4.23D-06 1.2D-04      2.7



          %%%%% MacroIteration   3 %%%%%


          Number of sigma calls:        1
                       o<<<<< (aa):             0.00
                       o<<<<< (bb):             0.00
                       o<<<<< (ab):             0.00
                       o<<<<< (total)           0.00
                       o<<<<< (aa) ff           0.00
                       o<<<<< (aa) gop          0.00
                       o<<<<< (aa) dot          0.00
                       o<<<<< (ab) str          0.00
                       o<<<<< (ab) gath         0.00
                       o<<<<< (ab) dotab        0.00
                       o<<<<< (ab) scat         0.00
                       o<<<<< (ab) sync         0.00
                       o<<<<< Density           0.00
                       o<<<<< Density one       0.00
                       o<<<<< Density two       0.00
                       o<<<<< Density ab        0.00
                       o<<<<< Spin adapt        0.00
                       o<<<<< Symm adapt        0.00

                       o<<<<< (ab) max sync:      0.00

           >>>| Valence CI:           -102.772181763081
           >>>| MCSCF energy:          -99.964178955078
           >>>| Gradient norm:          0.161152387D-02
     --- Warning:   59 Hessian diagonals < 0.05 ---

                              ----- Line search ------

        step       energy         lsg     num-lsg   num-lsh   lsrat    time
      ------- ---------------- --------- --------- --------- ------- --------
       0.0000     -99.96417896 -4.04D-07  0.00D+00  0.00D+00 0.0D+00      2.7

          Number of sigma calls:       17
                       o<<<<< (aa):             0.00
                       o<<<<< (bb):             0.00
                       o<<<<< (ab):             0.03
                       o<<<<< (total)           0.03
                       o<<<<< (aa) ff           0.00
                       o<<<<< (aa) gop          0.00
                       o<<<<< (aa) dot          0.00
                       o<<<<< (ab) str          0.00
                       o<<<<< (ab) gath         0.00
                       o<<<<< (ab) dotab        0.00
                       o<<<<< (ab) scat         0.00
                       o<<<<< (ab) sync         0.00
                       o<<<<< Density           0.00
                       o<<<<< Density one       0.00
                       o<<<<< Density two       0.00
                       o<<<<< Density ab        0.00
                       o<<<<< Spin adapt        0.19
                       o<<<<< Symm adapt        0.00

                       o<<<<< (ab) max sync:      0.00
       1.0000     -99.96417920 -9.38D-08 -9.38D-08  3.10D-07 2.3D-01      3.0

          Number of sigma calls:       15
                       o<<<<< (aa):             0.00
                       o<<<<< (bb):             0.00
                       o<<<<< (ab):             0.04
                       o<<<<< (total)           0.04
                       o<<<<< (aa) ff           0.00
                       o<<<<< (aa) gop          0.00
                       o<<<<< (aa) dot          0.00
                       o<<<<< (ab) str          0.00
                       o<<<<< (ab) gath         0.00
                       o<<<<< (ab) dotab        0.00
                       o<<<<< (ab) scat         0.00
                       o<<<<< (ab) sync         0.00
                       o<<<<< Density           0.00
                       o<<<<< Density one       0.00
                       o<<<<< Density two       0.00
                       o<<<<< Density ab        0.00
                       o<<<<< Spin adapt        0.21
                       o<<<<< Symm adapt        0.00

                       o<<<<< (ab) max sync:      0.00
       1.3021     -99.96417922 -4.60D-11 -4.55D-11  3.10D-07 1.1D-04      3.3



          %%%%% MacroIteration   4 %%%%%


          Number of sigma calls:        1
                       o<<<<< (aa):             0.00
                       o<<<<< (bb):             0.00
                       o<<<<< (ab):             0.00
                       o<<<<< (total)           0.00
                       o<<<<< (aa) ff           0.00
                       o<<<<< (aa) gop          0.00
                       o<<<<< (aa) dot          0.00
                       o<<<<< (ab) str          0.00
                       o<<<<< (ab) gath         0.00
                       o<<<<< (ab) dotab        0.00
                       o<<<<< (ab) scat         0.00
                       o<<<<< (ab) sync         0.00
                       o<<<<< Density           0.01
                       o<<<<< Density one       0.00
                       o<<<<< Density two       0.00
                       o<<<<< Density ab        0.01
                       o<<<<< Spin adapt        0.00
                       o<<<<< Symm adapt        0.00

                       o<<<<< (ab) max sync:      0.00

           >>>| Valence CI:           -102.772182026253
           >>>| MCSCF energy:          -99.964179218250
           >>>| Gradient norm:          0.480166626D-03
     --- Warning:   59 Hessian diagonals < 0.05 ---

                              ----- Line search ------

        step       energy         lsg     num-lsg   num-lsh   lsrat    time
      ------- ---------------- --------- --------- --------- ------- --------
       0.0000     -99.96417922 -4.67D-08  0.00D+00  0.00D+00 0.0D+00      3.4

          Number of sigma calls:       15
                       o<<<<< (aa):             0.00
                       o<<<<< (bb):             0.00
                       o<<<<< (ab):             0.04
                       o<<<<< (total)           0.05
                       o<<<<< (aa) ff           0.00
                       o<<<<< (aa) gop          0.00
                       o<<<<< (aa) dot          0.00
                       o<<<<< (ab) str          0.00
                       o<<<<< (ab) gath         0.00
                       o<<<<< (ab) dotab        0.00
                       o<<<<< (ab) scat         0.00
                       o<<<<< (ab) sync         0.00
                       o<<<<< Density           0.01
                       o<<<<< Density one       0.00
                       o<<<<< Density two       0.00
                       o<<<<< Density ab        0.01
                       o<<<<< Spin adapt        0.23
                       o<<<<< Symm adapt        0.00

                       o<<<<< (ab) max sync:      0.00
       1.0000     -99.96417925 -1.88D-08 -1.88D-08  2.78D-08 4.0D-01      3.7

          Number of sigma calls:       14
                       o<<<<< (aa):             0.00
                       o<<<<< (bb):             0.00
                       o<<<<< (ab):             0.04
                       o<<<<< (total)           0.04
                       o<<<<< (aa) ff           0.00
                       o<<<<< (aa) gop          0.00
                       o<<<<< (aa) dot          0.00
                       o<<<<< (ab) str          0.00
                       o<<<<< (ab) gath         0.00
                       o<<<<< (ab) dotab        0.00
                       o<<<<< (ab) scat         0.00
                       o<<<<< (ab) sync         0.00
                       o<<<<< Density           0.01
                       o<<<<< Density one       0.00
                       o<<<<< Density two       0.00
                       o<<<<< Density ab        0.01
                       o<<<<< Spin adapt        0.24
                       o<<<<< Symm adapt        0.00

                       o<<<<< (ab) max sync:      0.00
       1.6775     -99.96417926 -2.25D-11 -2.10D-11  2.78D-08 4.8D-04      4.0



          %%%%% MacroIteration   5 %%%%%


          Number of sigma calls:        1
                       o<<<<< (aa):             0.00
                       o<<<<< (bb):             0.00
                       o<<<<< (ab):             0.00
                       o<<<<< (total)           0.00
                       o<<<<< (aa) ff           0.00
                       o<<<<< (aa) gop          0.00
                       o<<<<< (aa) dot          0.00
                       o<<<<< (ab) str          0.00
                       o<<<<< (ab) gath         0.00
                       o<<<<< (ab) dotab        0.00
                       o<<<<< (ab) scat         0.00
                       o<<<<< (ab) sync         0.00
                       o<<<<< Density           0.01
                       o<<<<< Density one       0.00
                       o<<<<< Density two       0.00
                       o<<<<< Density ab        0.01
                       o<<<<< Spin adapt        0.00
                       o<<<<< Symm adapt        0.00

                       o<<<<< (ab) max sync:      0.00

           >>>| Valence CI:           -102.772182065399
           >>>| MCSCF energy:          -99.964179257397
           >>>| Gradient norm:          0.988021398D-04




     ==============================
            MCSCF Converged
     ==============================



          Canonical Eigenvalues

              1      
    1  -26.3363
    2   -1.5402
    3   -0.6590
    4   -0.6590
    5   -0.5596
    6   -0.1172
    7   -0.0057
    8   -0.0033
    9    0.3792
   10    0.7280
   11    0.7280
   12    0.9095
   13    1.0003
   14    1.0003
   15    1.5322
   16    2.2519
   17    2.2519
   18    2.2654
   19    2.2654
   20    2.5896
   21    3.4054
   22    3.4054
   23    3.4832
   24    3.4832
   25    3.5843
   26    3.8678
   27    3.8678
   28    4.1251
   29    5.0689
   30    5.0689
   31    5.1255
   32    7.3678
   33    7.3678
   34    7.3695
   35    7.3695
   36    7.3993
   37    7.3993
   38    7.4068
   39    8.4701
   40    8.8414
   41    8.8414
   42    8.8548
   43    8.8548
   44    9.7206


          Converged CI vector

   Index           Coefficient          Config. Occupation
         1          0.90519920          1  2  3  4  5  1  2  3  4  5
         2          0.17619267          1  2  3  4  5  1  2  3  4  6
        57          0.17619267          1  2  3  4  6  1  2  3  4  5
        58         -0.33571944          1  2  3  4  6  1  2  3  4  6
        66          0.02112197          1  2  3  4  6  1  3  4  5  7
      1181          0.02257013          1  2  3  4  8  1  3  4  5  6
       246          0.02257013          1  3  4  5  6  1  2  3  4  8
       506          0.02112197          1  3  4  5  7  1  2  3  4  6

          Number of sigma calls:        1
                       o<<<<< (aa):             0.00
                       o<<<<< (bb):             0.00
                       o<<<<< (ab):             0.00
                       o<<<<< (total)           0.00
                       o<<<<< (aa) ff           0.00
                       o<<<<< (aa) gop          0.00
                       o<<<<< (aa) dot          0.00
                       o<<<<< (ab) str          0.00
                       o<<<<< (ab) gath         0.00
                       o<<<<< (ab) dotab        0.00
                       o<<<<< (ab) scat         0.00
                       o<<<<< (ab) sync         0.00
                       o<<<<< Density           0.01
                       o<<<<< Density one       0.00
                       o<<<<< Density two       0.00
                       o<<<<< Density ab        0.01
                       o<<<<< Spin adapt        0.00
                       o<<<<< Symm adapt        0.00

                       o<<<<< (ab) max sync:      0.00



          Natural orbital occupation numbers

              1      
    1    2.0000
    2    1.9993
    3    1.9993
    4    1.9949
    5    1.7353
    6    0.2650
    7    0.0039
    8    0.0023


          Number of sigma calls:       31
                       o<<<<< (aa):             0.00
                       o<<<<< (bb):             0.01
                       o<<<<< (ab):             0.09
                       o<<<<< (total)           0.10
                       o<<<<< (aa) ff           0.00
                       o<<<<< (aa) gop          0.00
                       o<<<<< (aa) dot          0.00
                       o<<<<< (ab) str          0.00
                       o<<<<< (ab) gath         0.00
                       o<<<<< (ab) dotab        0.00
                       o<<<<< (ab) scat         0.00
                       o<<<<< (ab) sync         0.00
                       o<<<<< Density           0.01
                       o<<<<< Density one       0.00
                       o<<<<< Density two       0.00
                       o<<<<< Density ab        0.01
                       o<<<<< Spin adapt        0.30
                       o<<<<< Symm adapt        0.00

                       o<<<<< (ab) max sync:      0.00


       Final MCSCF results 
       ------------------- 

       Total MCSCF energy =    -99.964179257396
            Gradient norm =      9.9D-05

    CPU time for solution =      4.6s
   Wall time for solution =      9.7s



                        Analysis of MCSCF natural orbitals
                        ----------------------------------

 Vector    1  Occ=1.999983D+00  E=-2.633631D+01  Symmetry=a
              MO Center=  2.4D-13, -1.7D-01, -7.6D-14, r^2= 1.2D-02
   Bfn.  Coefficient  Atom+Function         Bfn.  Coefficient  Atom+Function  
  ----- ------------  ---------------      ----- ------------  ---------------
     1      0.976033  1 F  s          

 Vector    2  Occ=1.999307D+00  E=-1.540231D+00  Symmetry=a
              MO Center= -8.9D-15, -1.7D-01, -7.0D-13, r^2= 4.4D-01
   Bfn.  Coefficient  Atom+Function         Bfn.  Coefficient  Atom+Function  
  ----- ------------  ---------------      ----- ------------  ---------------
    10      0.476677  1 F  pz                 7      0.392477  1 F  pz         
    13      0.352241  1 F  pz         

 Vector    3  Occ=1.999306D+00  E=-6.590456D-01  Symmetry=a
              MO Center= -1.6D-13, -1.7D-01, -8.6D-15, r^2= 4.4D-01
   Bfn.  Coefficient  Atom+Function         Bfn.  Coefficient  Atom+Function  
  ----- ------------  ---------------      ----- ------------  ---------------
     8      0.476677  1 F  px                 5      0.392477  1 F  px         
    11      0.352241  1 F  px         

 Vector    4  Occ=1.994932D+00  E=-6.590454D-01  Symmetry=a
              MO Center= -8.3D-14, -1.9D-01,  7.5D-13, r^2= 3.5D-01
   Bfn.  Coefficient  Atom+Function         Bfn.  Coefficient  Atom+Function  
  ----- ------------  ---------------      ----- ------------  ---------------
     2      0.576026  1 F  s                  4      0.379554  1 F  s          
     3      0.171039  1 F  s          

 Vector    5  Occ=1.735349D+00  E=-5.596217D-01  Symmetry=a
              MO Center=  2.9D-14,  4.9D-01,  1.1D-13, r^2= 1.2D+00
   Bfn.  Coefficient  Atom+Function         Bfn.  Coefficient  Atom+Function  
  ----- ------------  ---------------      ----- ------------  ---------------
     9      0.354893  1 F  py                32      0.303089  2 H  s          
     6      0.287355  1 F  py                12      0.249064  1 F  py         
    33      0.186274  2 H  s          

 Vector    6  Occ=2.649864D-01  E=-1.172266D-01  Symmetry=a
              MO Center= -1.8D-14,  8.3D-01, -2.2D-14, r^2= 1.3D+00
   Bfn.  Coefficient  Atom+Function         Bfn.  Coefficient  Atom+Function  
  ----- ------------  ---------------      ----- ------------  ---------------
    32      0.467416  2 H  s                  9     -0.401719  1 F  py         
     6     -0.326391  1 F  py                33      0.240208  2 H  s          
    31      0.206057  2 H  s          

 Vector    7  Occ=3.850597D-03  E=-5.726455D-03  Symmetry=a
              MO Center= -6.1D-15, -2.2D-01,  1.9D-14, r^2= 7.3D-01
   Bfn.  Coefficient  Atom+Function         Bfn.  Coefficient  Atom+Function  
  ----- ------------  ---------------      ----- ------------  ---------------
     4      1.210833  1 F  s                  3     -0.682044  1 F  s          
     2     -0.643703  1 F  s                 23      0.316208  1 F  d  2       
    21      0.182565  1 F  d  0              18      0.153489  1 F  d  2       

 Vector    8  Occ=2.286430D-03  E=-3.289456D-03  Symmetry=a
              MO Center= -4.9D-15, -3.2D-01,  5.1D-15, r^2= 5.2D-01
   Bfn.  Coefficient  Atom+Function         Bfn.  Coefficient  Atom+Function  
  ----- ------------  ---------------      ----- ------------  ---------------
    23      0.530272  1 F  d  2               3      0.488508  1 F  s          
     4     -0.489371  1 F  s                 21      0.306109  1 F  d  0       
    18      0.291700  1 F  d  2              12      0.237778  1 F  py         
     6     -0.235537  1 F  py                16      0.168381  1 F  d  0       
     1     -0.166124  1 F  s          

 Vector    9  Occ=0.000000D+00  E= 3.792034D-01  Symmetry=a
              MO Center= -1.4D-14,  1.8D+00, -1.9D-14, r^2= 3.1D+00
   Bfn.  Coefficient  Atom+Function         Bfn.  Coefficient  Atom+Function  
  ----- ------------  ---------------      ----- ------------  ---------------
    33      1.732148  2 H  s                 32     -1.221221  2 H  s          
     4     -0.515289  1 F  s                 12     -0.265422  1 F  py         
     2      0.160322  1 F  s          

 Vector   10  Occ=0.000000D+00  E= 7.280036D-01  Symmetry=a
              MO Center= -1.5D-14,  1.3D+00, -1.5D-16, r^2= 1.3D+00
   Bfn.  Coefficient  Atom+Function         Bfn.  Coefficient  Atom+Function  
  ----- ------------  ---------------      ----- ------------  ---------------
    37      0.940696  2 H  px                11      0.339802  1 F  px         
     8     -0.277949  1 F  px         

 Vector   11  Occ=0.000000D+00  E= 7.280036D-01  Symmetry=a
              MO Center= -1.0D-15,  1.3D+00, -4.7D-14, r^2= 1.3D+00
   Bfn.  Coefficient  Atom+Function         Bfn.  Coefficient  Atom+Function  
  ----- ------------  ---------------      ----- ------------  ---------------
    39      0.940696  2 H  pz                13      0.339802  1 F  pz         
    10     -0.277949  1 F  pz         

 Vector   12  Occ=0.000000D+00  E= 9.095499D-01  Symmetry=a
              MO Center= -2.0D-15,  1.2D+00, -2.9D-14, r^2= 1.7D+00
   Bfn.  Coefficient  Atom+Function         Bfn.  Coefficient  Atom+Function  
  ----- ------------  ---------------      ----- ------------  ---------------
    38      0.828335  2 H  py                12     -0.500436  1 F  py         
    32      0.462967  2 H  s                  9      0.413388  1 F  py         
    33     -0.322957  2 H  s                  4      0.257662  1 F  s          
     6      0.162741  1 F  py         

 Vector   13  Occ=0.000000D+00  E= 1.000347D+00  Symmetry=a
              MO Center=  1.2D-15,  3.1D-02,  4.5D-16, r^2= 1.8D+00
   Bfn.  Coefficient  Atom+Function         Bfn.  Coefficient  Atom+Function  
  ----- ------------  ---------------      ----- ------------  ---------------
    11      1.167097  1 F  px                 8     -0.680860  1 F  px         
    37     -0.515008  2 H  px                 5     -0.228928  1 F  px         

 Vector   14  Occ=0.000000D+00  E= 1.000347D+00  Symmetry=a
              MO Center=  1.4D-16,  3.1D-02,  3.2D-14, r^2= 1.8D+00
   Bfn.  Coefficient  Atom+Function         Bfn.  Coefficient  Atom+Function  
  ----- ------------  ---------------      ----- ------------  ---------------
    13      1.167097  1 F  pz                10     -0.680860  1 F  pz         
    39     -0.515008  2 H  pz                 7     -0.228928  1 F  pz         

 Vector   15  Occ=0.000000D+00  E= 1.532171D+00  Symmetry=a
              MO Center=  3.1D-14,  4.7D-01,  1.2D-14, r^2= 2.5D+00
   Bfn.  Coefficient  Atom+Function         Bfn.  Coefficient  Atom+Function  
  ----- ------------  ---------------      ----- ------------  ---------------
    12      1.546910  1 F  py                38      1.178045  2 H  py         
     4      1.103585  1 F  s                  9     -0.594206  1 F  py         
     2     -0.512331  1 F  s                 33     -0.497772  2 H  s          
    23     -0.295196  1 F  d  2              31     -0.225992  2 H  s          
    32     -0.212520  2 H  s                  1     -0.195575  1 F  s          

 Vector   16  Occ=0.000000D+00  E= 2.251912D+00  Symmetry=a
              MO Center=  3.8D-16, -5.7D-02,  7.0D-16, r^2= 7.7D-01
   Bfn.  Coefficient  Atom+Function         Bfn.  Coefficient  Atom+Function  
  ----- ------------  ---------------      ----- ------------  ---------------
    20      0.982358  1 F  d -1              41     -0.164771  2 H  d -1       

 Vector   17  Occ=0.000000D+00  E= 2.251912D+00  Symmetry=a
              MO Center= -1.7D-14, -5.7D-02,  7.9D-15, r^2= 7.7D-01
   Bfn.  Coefficient  Atom+Function         Bfn.  Coefficient  Atom+Function  
  ----- ------------  ---------------      ----- ------------  ---------------
    19      0.982358  1 F  d -2              40     -0.164771  2 H  d -2       

 Vector   18  Occ=0.000000D+00  E= 2.265353D+00  Symmetry=a
              MO Center=  1.1D-14, -1.7D-01,  9.5D-15, r^2= 5.8D-01
   Bfn.  Coefficient  Atom+Function         Bfn.  Coefficient  Atom+Function  
  ----- ------------  ---------------      ----- ------------  ---------------
    21      0.870152  1 F  d  0              23     -0.502328  1 F  d  2       


 Wrote Lagrangian and 1- and 2-particle density matrices to ./HF.mcpdm


     Multipole analysis of the density
     ---------------------------------

     L   x y z        total        nuclear
     -   - - -        -----        -------
     0   0 0 0     -0.000000     10.000000

     1   1 0 0     -0.000000      0.000000
     1   0 1 0      0.575326      0.000000
     1   0 0 1     -0.000000      0.000000

     2   2 0 0     -4.501999      0.000000
     2   1 1 0     -0.000000      0.000000
     2   1 0 1      0.000000      0.000000
     2   0 2 0     -2.010667      9.245544
     2   0 1 1     -0.000000      0.000000
     2   0 0 2     -4.502000      0.000000


  Mulliken analysis of the total density
  --------------------------------------

    Atom       Charge   Shell Charges
 -----------   ------   -------------------------------------------------------
    1 F    9     9.17   1.95  1.09  0.28  0.67  1.50  2.31  1.37  0.00  0.00  0.00
    2 H    1     0.83   0.15  0.45  0.23  0.00  0.01  0.00

    Mulliken analysis of the active space density
    ---------------------------------------------

    Atom       Charge   Shell Charges
 -----------   ------   -------------------------------------------------------
    1 F    9     9.17   1.95  1.09  0.28  0.67  1.50  2.31  1.37  0.00  0.00  0.00
    2 H    1     0.83   0.15  0.45  0.23  0.00  0.01  0.00

 Parallel integral file used       3 records with       0 large values


 Task  times  cpu:        4.6s     wall:        9.7s


                                NWChem Input Module
                                -------------------


                                 NWChem SCF Module
                                 -----------------


                                        HF



  ao basis        = "ao basis"
  functions       =    44
  atoms           =     2
  closed shells   =     5
  open shells     =     0
  charge          =   0.00
  wavefunction    = RHF 
  input vectors   = ./HF.mos
  output vectors  = ./HF-trash.mos
  use symmetry    = F
  symmetry adapt  = F


 Summary of "ao basis" -> "ao basis" (spherical)
 ------------------------------------------------------------------------------
       Tag                 Description            Shells   Functions and Types
 ---------------- ------------------------------  ------  ---------------------
 F                          cc-pVTZ                 10       30   4s3p2d1f
 H                          cc-pVTZ                  6       14   3s2p1d



 Forming initial guess at       9.7s


 Loading old vectors from job with title :

HF


 Starting SCF solution at       9.7s



 ----------------------------------------------
         Quadratically convergent ROHF

 Convergence threshold     :          1.000E-04
 Maximum no. of iterations :           30
 Final Fock-matrix accuracy:          1.000E-07
 ----------------------------------------------


 Integral file          = ./HF.aoints.0
 Record size in doubles =  65536        No. of integs per rec  =  43688
 Max. records in memory =     18        Max. records in file   = 250320
 No. of bits per label  =      8        No. of bits per value  =     64


 #quartets = 9.316D+03 #integrals = 1.250D+05 #direct =  0.0% #cached =100.0%



       Final RHF  results 
       ------------------ 

         Total SCF energy =    -99.843858465023
      One-electron energy =   -145.961723546266
      Two-electron energy =     43.309862273241
 Nuclear repulsion energy =      2.808002808003

        Time for solution =      0.0s


             Final eigenvalues
             -----------------

              1      
    1  -26.3363
    2   -1.5402
    3   -0.6590
    4   -0.6590
    5   -0.5596
    6   -0.1172
    7   -0.0057
    8   -0.0033
    9    0.3792
   10    0.7280
   11    0.7280
   12    0.9095
   13    1.0003
   14    1.0003
   15    1.5322

                       ROHF Final Molecular Orbital Analysis
                       -------------------------------------

 Vector    2  Occ=2.000000D+00  E=-1.540231D+00
              MO Center= -8.9D-15, -1.7D-01, -7.0D-13, r^2= 4.4D-01
   Bfn.  Coefficient  Atom+Function         Bfn.  Coefficient  Atom+Function  
  ----- ------------  ---------------      ----- ------------  ---------------
    10      0.476677  1 F  pz                 7      0.392477  1 F  pz         
    13      0.352241  1 F  pz         

 Vector    3  Occ=2.000000D+00  E=-6.590456D-01
              MO Center= -1.6D-13, -1.7D-01, -8.6D-15, r^2= 4.4D-01
   Bfn.  Coefficient  Atom+Function         Bfn.  Coefficient  Atom+Function  
  ----- ------------  ---------------      ----- ------------  ---------------
     8      0.476677  1 F  px                 5      0.392477  1 F  px         
    11      0.352241  1 F  px         

 Vector    4  Occ=2.000000D+00  E=-6.590454D-01
              MO Center= -8.3D-14, -1.9D-01,  7.5D-13, r^2= 3.5D-01
   Bfn.  Coefficient  Atom+Function         Bfn.  Coefficient  Atom+Function  
  ----- ------------  ---------------      ----- ------------  ---------------
     2      0.576026  1 F  s                  4      0.379554  1 F  s          
     3      0.171039  1 F  s          

 Vector    5  Occ=2.000000D+00  E=-5.596217D-01
              MO Center=  2.9D-14,  4.9D-01,  1.1D-13, r^2= 1.2D+00
   Bfn.  Coefficient  Atom+Function         Bfn.  Coefficient  Atom+Function  
  ----- ------------  ---------------      ----- ------------  ---------------
     9      0.354893  1 F  py                32      0.303089  2 H  s          
     6      0.287355  1 F  py                12      0.249064  1 F  py         
    33      0.186274  2 H  s          

 Vector    6  Occ=0.000000D+00  E=-1.172266D-01
              MO Center= -1.8D-14,  8.3D-01, -2.2D-14, r^2= 1.3D+00
   Bfn.  Coefficient  Atom+Function         Bfn.  Coefficient  Atom+Function  
  ----- ------------  ---------------      ----- ------------  ---------------
    32      0.467416  2 H  s                  9     -0.401719  1 F  py         
     6     -0.326391  1 F  py                33      0.240208  2 H  s          
    31      0.206057  2 H  s          

 Vector    7  Occ=0.000000D+00  E=-5.726455D-03
              MO Center= -6.1D-15, -2.2D-01,  1.9D-14, r^2= 7.3D-01
   Bfn.  Coefficient  Atom+Function         Bfn.  Coefficient  Atom+Function  
  ----- ------------  ---------------      ----- ------------  ---------------
     4      1.210833  1 F  s                  3     -0.682044  1 F  s          
     2     -0.643703  1 F  s                 23      0.316208  1 F  d  2       
    21      0.182565  1 F  d  0              18      0.153489  1 F  d  2       

 Vector    8  Occ=0.000000D+00  E=-3.289456D-03
              MO Center= -4.9D-15, -3.2D-01,  5.1D-15, r^2= 5.2D-01
   Bfn.  Coefficient  Atom+Function         Bfn.  Coefficient  Atom+Function  
  ----- ------------  ---------------      ----- ------------  ---------------
    23      0.530272  1 F  d  2               3      0.488508  1 F  s          
     4     -0.489371  1 F  s                 21      0.306109  1 F  d  0       
    18      0.291700  1 F  d  2              12      0.237778  1 F  py         
     6     -0.235537  1 F  py                16      0.168381  1 F  d  0       
     1     -0.166124  1 F  s          

 Vector    9  Occ=0.000000D+00  E= 3.792034D-01
              MO Center= -1.4D-14,  1.8D+00, -1.9D-14, r^2= 3.1D+00
   Bfn.  Coefficient  Atom+Function         Bfn.  Coefficient  Atom+Function  
  ----- ------------  ---------------      ----- ------------  ---------------
    33      1.732148  2 H  s                 32     -1.221221  2 H  s          
     4     -0.515289  1 F  s                 12     -0.265422  1 F  py         
     2      0.160322  1 F  s          

 Vector   10  Occ=0.000000D+00  E= 7.280036D-01
              MO Center= -1.5D-14,  1.3D+00, -1.5D-16, r^2= 1.3D+00
   Bfn.  Coefficient  Atom+Function         Bfn.  Coefficient  Atom+Function  
  ----- ------------  ---------------      ----- ------------  ---------------
    37      0.940696  2 H  px                11      0.339802  1 F  px         
     8     -0.277949  1 F  px         

 Vector   11  Occ=0.000000D+00  E= 7.280036D-01
              MO Center= -1.0D-15,  1.3D+00, -4.7D-14, r^2= 1.3D+00
   Bfn.  Coefficient  Atom+Function         Bfn.  Coefficient  Atom+Function  
  ----- ------------  ---------------      ----- ------------  ---------------
    39      0.940696  2 H  pz                13      0.339802  1 F  pz         
    10     -0.277949  1 F  pz         

 Vector   12  Occ=0.000000D+00  E= 9.095499D-01
              MO Center= -2.0D-15,  1.2D+00, -2.9D-14, r^2= 1.7D+00
   Bfn.  Coefficient  Atom+Function         Bfn.  Coefficient  Atom+Function  
  ----- ------------  ---------------      ----- ------------  ---------------
    38      0.828335  2 H  py                12     -0.500436  1 F  py         
    32      0.462967  2 H  s                  9      0.413388  1 F  py         
    33     -0.322957  2 H  s                  4      0.257662  1 F  s          
     6      0.162741  1 F  py         

 Vector   13  Occ=0.000000D+00  E= 1.000347D+00
              MO Center=  1.2D-15,  3.1D-02,  4.5D-16, r^2= 1.8D+00
   Bfn.  Coefficient  Atom+Function         Bfn.  Coefficient  Atom+Function  
  ----- ------------  ---------------      ----- ------------  ---------------
    11      1.167097  1 F  px                 8     -0.680860  1 F  px         
    37     -0.515008  2 H  px                 5     -0.228928  1 F  px         

 Vector   14  Occ=0.000000D+00  E= 1.000347D+00
              MO Center=  1.4D-16,  3.1D-02,  3.2D-14, r^2= 1.8D+00
   Bfn.  Coefficient  Atom+Function         Bfn.  Coefficient  Atom+Function  
  ----- ------------  ---------------      ----- ------------  ---------------
    13      1.167097  1 F  pz                10     -0.680860  1 F  pz         
    39     -0.515008  2 H  pz                 7     -0.228928  1 F  pz         

 Vector   15  Occ=0.000000D+00  E= 1.532171D+00
              MO Center=  3.1D-14,  4.7D-01,  1.2D-14, r^2= 2.5D+00
   Bfn.  Coefficient  Atom+Function         Bfn.  Coefficient  Atom+Function  
  ----- ------------  ---------------      ----- ------------  ---------------
    12      1.546910  1 F  py                38      1.178045  2 H  py         
     4      1.103585  1 F  s                  9     -0.594206  1 F  py         
     2     -0.512331  1 F  s                 33     -0.497772  2 H  s          
    23     -0.295196  1 F  d  2              31     -0.225992  2 H  s          
    32     -0.212520  2 H  s                  1     -0.195575  1 F  s          


 center of mass
 --------------
 x =   0.00000000 y =  -0.15905250 z =   0.00000000

 moments of inertia (a.u.)
 ------------------
           9.831662212842           0.000000000000           0.000000000000
           0.000000000000           0.000000000000           0.000000000000
           0.000000000000           0.000000000000           9.831662212842

  Mulliken analysis of the total density
  --------------------------------------

    Atom       Charge   Shell Charges
 -----------   ------   -------------------------------------------------------
    1 F    9     9.22   1.95  1.09  0.28  0.67  1.49  2.32  1.42  0.00  0.00  0.00
    2 H    1     0.78   0.13  0.41  0.22  0.00  0.01  0.00

       Multipole analysis of the density wrt the origin
       ------------------------------------------------

     L   x y z        total         open         nuclear
     -   - - -        -----         ----         -------
     0   0 0 0     -0.000000      0.000000     10.000000

     1   1 0 0     -0.000000      0.000000      0.000000
     1   0 1 0      0.747218      0.000000      0.000000
     1   0 0 1     -0.000000      0.000000      0.000000

     2   2 0 0     -4.499899      0.000000      0.000000
     2   1 1 0     -0.000000      0.000000      0.000000
     2   1 0 1      0.000000      0.000000      0.000000
     2   0 2 0     -1.489827      0.000000      9.245544
     2   0 1 1     -0.000000      0.000000      0.000000
     2   0 0 2     -4.499900      0.000000      0.000000


 Parallel integral file used       3 records with       0 large values

                   NWChem Extensible Many-Electron Theory Module
                   ---------------------------------------------

              ======================================================
                   This portion of the program was automatically
                  generated by a Tensor Contraction Engine (TCE).
                  The development of this portion of the program
                 and TCE was supported by US Department of Energy,
                Office of Science, Office of Basic Energy Science.
                      TCE is a product of Battelle and PNNL.
              Please cite: S.Hirata, J.Phys.Chem.A 107, 9887 (2003).
              ======================================================

                                        HF


            General Information
            -------------------
      Number of processors :     1
         Wavefunction type : Restricted Hartree-Fock
          No. of electrons :    10
           Alpha electrons :     5
            Beta electrons :     5
           No. of orbitals :    88
            Alpha orbitals :    44
             Beta orbitals :    44
        Alpha frozen cores :     0
         Beta frozen cores :     0
     Alpha frozen virtuals :     0
      Beta frozen virtuals :     0
         Spin multiplicity : singlet 
    Number of AO functions :    44
       Number of AO shells :    16
        Use of symmetry is : off
      Symmetry adaption is : off
         Schwarz screening : 0.10D-09

          Correlation Information
          -----------------------
          Calculation type : Coupled-cluster singles & doubles                           
   Perturbative correction : none                                                        
            Max iterations :      500
        Residual threshold : 0.10D-06
     T(0) DIIS level shift : 0.00D+00
     L(0) DIIS level shift : 0.00D+00
     T(1) DIIS level shift : 0.00D+00
     L(1) DIIS level shift : 0.00D+00
     T(R) DIIS level shift : 0.00D+00
     T(I) DIIS level shift : 0.00D+00
   CC-T/L Amplitude update :  5-th order DIIS
                I/O scheme : Global Array Library
        L-threshold :  0.10D-06
        EOM-threshold :  0.10D-06
 no EOMCCSD initial starts read in
 TCE RESTART OPTIONS
 READ_INT:   F
 WRITE_INT:  F
 READ_TA:    F
 WRITE_TA:   F
 READ_XA:    F
 WRITE_XA:   F
 READ_IN3:   F
 WRITE_IN3:  F
 SLICE:      F
 D4D5:       F
 quantumc:   F
 qrotation:  F
 pwtce:      F
 qducc:      T
 nacto:                         0
 nrotv:                         0
 nrot:                          0

            Memory Information
            ------------------
          Available GA space size is    1610610800 doubles
          Available MA space size is    1610610316 doubles

 Maximum block size        32 doubles

 tile_dim =     20

 Block   Spin    Irrep     Size     Offset   Alpha
 -------------------------------------------------
   1    alpha     a      5 doubles       0       1
   2    beta      a      5 doubles       5       1
   3    alpha     a     19 doubles      10       3
   4    alpha     a     20 doubles      29       4
   5    beta      a     19 doubles      49       3
   6    beta      a     20 doubles      68       4

 Global array virtual files algorithm will be used

 Parallel file system coherency ......... OK

 Integral file          = ./HF.aoints.0
 Record size in doubles =  65536        No. of integs per rec  =  43688
 Max. records in memory =     18        Max. records in file   = 250320
 No. of bits per label  =      8        No. of bits per value  =     64


 #quartets = 9.316D+03 #integrals = 1.251D+05 #direct =  0.0% #cached =100.0%


 Fock matrix recomputed
 1-e file size   =             1936
 1-e file name   = ./HF.f1
 Cpu & wall time / sec            0.0            0.1
 4-electron integrals stored in orbital form

 v2    file size   =          1153346
 4-index algorithm nr.  13 is used
 imaxsize =       30
 imaxsize ichop =        0
 Cpu & wall time / sec            0.4            0.4
 T1-number-of-tasks                    2

 t1 file size   =              195
 t1 file name   = ./HF.t1
 t1 file handle =       -998
 T2-number-of-boxes                    7

 t2 file size   =            66550
 t2 file name   = ./HF.t2
 t2 file handle =       -996
CCSD iterations
 ---------------------------------------------------------
 Iter          Residuum       Correlation     Cpu    Wall 
 ---------------------------------------------------------
NEW TASK SCHEDULING
CCSD_T1_NTS --- OK
CCSD_T2_NTS --- OK
    1   1.4220152156560  -0.4582350815688     0.1     0.1
    2   5.0684211092237  -0.0121769443308     0.1     0.1
    3  23.8482675100551  -1.2675883080868     0.1     0.1
    4  85.6907007914174   4.1844536098480     0.1     0.1
    5 534.6446440945309  -6.8023400339218     0.1     0.1
 MICROCYCLE DIIS UPDATE:                    5                    5
    6   0.2133026963112  -0.3316815703745     0.1     0.1
    7   0.5630863662278  -0.3415082594655     0.1     0.1
    8   2.3756267809143  -0.3042023052818     0.1     0.1
    9  10.8697568648638  -0.3165511547055     0.1     0.1
   10  41.0492005955570   1.0665694788815     0.1     0.1
 MICROCYCLE DIIS UPDATE:                   10                    5
   11   0.0392925449085  -0.3313790222224     0.1     0.1
   12   0.0787456266663  -0.3379147026374     0.1     0.1
   13   0.3721369840000  -0.3303188407541     0.1     0.1
   14   1.9018250654088  -0.3602984286804     0.1     0.1
   15   9.7237326353286  -0.0531942366871     0.1     0.1
 MICROCYCLE DIIS UPDATE:                   15                    5
   16   0.0113528249525  -0.3370815672892     0.1     0.1
   17   0.0175393817113  -0.3369428304753     0.1     0.1
   18   0.0617395770673  -0.3358832879269     0.1     0.1
   19   0.2470724321225  -0.3432158639568     0.1     0.1
   20   1.0543633856563  -0.3117666306973     0.1     0.1
 MICROCYCLE DIIS UPDATE:                   20                    5
   21   0.0016788169063  -0.3373211415026     0.1     0.1
   22   0.0022796696774  -0.3373766041636     0.1     0.1
   23   0.0080349153953  -0.3373835526015     0.1     0.1
   24   0.0350194092522  -0.3373948414497     0.1     0.1
   25   0.1664071459604  -0.3371055668732     0.1     0.1
 MICROCYCLE DIIS UPDATE:                   25                    5
   26   0.0004453622913  -0.3374061654973     0.1     0.1
   27   0.0007426045919  -0.3373730257885     0.1     0.1
   28   0.0027119143465  -0.3374025615489     0.1     0.1
   29   0.0114273804315  -0.3374168454056     0.1     0.1
   30   0.0506627888104  -0.3372322108658     0.1     0.1
 MICROCYCLE DIIS UPDATE:                   30                    5
   31   0.0001375996492  -0.3373936115660     0.1     0.1
   32   0.0002436180343  -0.3373947742884     0.1     0.1
   33   0.0010309757292  -0.3374139449165     0.1     0.1
   34   0.0049683012577  -0.3373426184949     0.1     0.1
   35   0.0248962346910  -0.3376068084073     0.1     0.1
 MICROCYCLE DIIS UPDATE:                   35                    5
   36   0.0000454368671  -0.3374010248979     0.1     0.1
   37   0.0000664845622  -0.3373961436340     0.1     0.1
   38   0.0002281037878  -0.3374021093809     0.1     0.1
   39   0.0009357600682  -0.3373929511929     0.1     0.1
   40   0.0040473582017  -0.3374083223221     0.1     0.1
 MICROCYCLE DIIS UPDATE:                   40                    5
   41   0.0000146626333  -0.3373984791058     0.1     0.1
   42   0.0000258335291  -0.3373985252884     0.1     0.1
   43   0.0001096362972  -0.3374008374265     0.1     0.1
   44   0.0005304486702  -0.3373924695623     0.1     0.1
   45   0.0026720809330  -0.3374230260783     0.1     0.1
 MICROCYCLE DIIS UPDATE:                   45                    5
   46   0.0000049612886  -0.3373992773062     0.1     0.1
   47   0.0000069629904  -0.3373987138350     0.1     0.1
   48   0.0000236092837  -0.3373994137394     0.1     0.1
   49   0.0000975472204  -0.3373982472567     0.1     0.1
   50   0.0004266985107  -0.3374002622940     0.1     0.1
 MICROCYCLE DIIS UPDATE:                   50                    5
   51   0.0000015706200  -0.3373989698014     0.1     0.1
   52   0.0000031899276  -0.3373989704446     0.1     0.1
   53   0.0000143599207  -0.3373992197824     0.1     0.1
   54   0.0000709373336  -0.3373983210521     0.1     0.1
   55   0.0003604018603  -0.3374016454708     0.1     0.1
 MICROCYCLE DIIS UPDATE:                   55                    5
   56   0.0000005221958  -0.3373990522247     0.1     0.1
   57   0.0000006799263  -0.3373989924821     0.1     0.1
   58   0.0000021789495  -0.3373990703184     0.1     0.1
   59   0.0000087510022  -0.3373989247032     0.1     0.1
   60   0.0000374524017  -0.3373992378141     0.1     0.1
 MICROCYCLE DIIS UPDATE:                   60                    5
   61   0.0000001636487  -0.3373990196787     0.1     0.1
   62   0.0000003245032  -0.3373990191775     0.0     0.1
   63   0.0000014488406  -0.3373990461174     0.1     0.1
   64   0.0000071378126  -0.3373989475717     0.1     0.1
   65   0.0000363068469  -0.3373993233740     0.1     0.1
 MICROCYCLE DIIS UPDATE:                   65                    5
   66   0.0000000546950  -0.3373990279122     0.1     0.1
 -----------------------------------------------------------------
 Iterations converged
 CCSD correlation energy / hartree =        -0.337399027912232
 CCSD total energy / hartree       =      -100.181257492935273

 Singles contributions
     6a   (alpha) ---     5a   (alpha)       -0.0547543918

 Doubles contributions
     6a   (alpha)     6a   (beta ) ---     5a   (alpha)     5a   (beta )       -0.2844049235
     6a   (alpha)     7a   (beta ) ---     4a   (alpha)     5a   (beta )       -0.0201417258
     6a   (alpha)     7a   (beta ) ---     5a   (alpha)     4a   (beta )       -0.0242300295
     6a   (alpha)    10a   (beta ) ---     5a   (alpha)     3a   (beta )       -0.0222136612
     6a   (alpha)    11a   (beta ) ---     5a   (alpha)     2a   (beta )       -0.0222136602
     6a   (alpha)    13a   (beta ) ---     5a   (alpha)     3a   (beta )       -0.0257644305
     6a   (alpha)    14a   (beta ) ---     5a   (alpha)     2a   (beta )       -0.0257644303
     7a   (alpha)     6a   (beta ) ---     4a   (alpha)     5a   (beta )       -0.0242300295
     7a   (alpha)     6a   (beta ) ---     5a   (alpha)     4a   (beta )       -0.0201417258
    10a   (alpha)     6a   (beta ) ---     3a   (alpha)     5a   (beta )       -0.0222136612
    11a   (alpha)     6a   (beta ) ---     2a   (alpha)     5a   (beta )       -0.0222136602
    13a   (alpha)     6a   (beta ) ---     3a   (alpha)     5a   (beta )       -0.0257644305
    13a   (alpha)    13a   (beta ) ---     3a   (alpha)     3a   (beta )       -0.0316059661
    13a   (alpha)    14a   (beta ) ---     3a   (alpha)     2a   (beta )       -0.0221535884
    14a   (alpha)     6a   (beta ) ---     2a   (alpha)     5a   (beta )       -0.0257644303
    14a   (alpha)    13a   (beta ) ---     2a   (alpha)     3a   (beta )       -0.0221535884
    14a   (alpha)    14a   (beta ) ---     2a   (alpha)     2a   (beta )       -0.0316059692
 Ground state specification:
 exp(T)|Ref>~(1+T)|Ref>
 ------- a(p)+/a(q) strings ----------

 singles norm

 doubles norm

 Reference string
  0.96185591905053724      :(1a)+ (2a)+ (3a)+ (4a)+ (5a)+ (1b)+ (2b)+ (3b)+ (4b)+ (5b)+ |0>

 Singles strings

 Doubles strings
 -0.27355655902837794      :(6a)+ (6b)+ (5b)  (5a)  (1a)+ (2a)+ (3a)+ (4a)+ (5a)+ (1b)+ (2b)+ (3b)+ (4b)+ (5b)+ |0>
 -------------------------------------
 enrep_tce =    2.8080028080028057     
  EHF(total)         =       -99.84385847
  Shift (HFtot-HFA)  =         0.00000000
 ALL OCCUPIED ORBITALS ARE ACTIVE IN DUCC --> NO SHIFT
 Number of active orbitals                    8
 Number of active alpha electrons                    5
 Number of active beta electrons                    5
  nos                    10
  nvs                    78
 noas                     5
 nobs                     5
 nvas                    39
 nvbs                    39
 nactv                     3
 DUCC MODEL =                     6
 NONHF =  T
 F-T1 correlation    =   -5.3520974650416667E-003
 V-T1-T1 correlation =    1.4399474879145250E-004
 V-T2 correlation    =  -0.33219092519597737     
 Total correlation   =  -0.33739902791222759     
 F-T1(Ext) correlation         =   -1.1768921320183059E-003
 V-T1(Ext)-T1(Ext) correlation =    1.6915453373813794E-004
 V-T2(Ext) correlation         =  -0.23901940002802957     
 Total Ext correlation         =  -0.24002713762630973     
1-BODY TIME =   58.775 SECONDS.
  HHHH TIME =   62.358 SECONDS.
  PPPP TIME =    0.218 SECONDS.
  HHHP TIME =    6.677 SECONDS.
  PPPH TIME =    0.585 SECONDS.
  HPHP TIME =    5.377 SECONDS.
  HHPP TIME =    3.300 SECONDS.
 ONE-BODY UNITARY CHECK
 TWO-BODY UNITARY CHECK
                    1                    1                    1                    4  -1.7752709643547418E-012
                    1                    1                    1                    5  -3.7933231032453406E-011
                    1                    1                    4                    1   1.7752705635402272E-012
                    1                    1                    4                    5   5.8410573217334387E-011
                    1                    1                    5                    1   3.7933230546671946E-011
                    1                    1                    5                    4  -5.8410573223447355E-011
                    1                    2                    2                    1  -3.1475333450714515E-010
                    1                    2                    2                    4   1.5905434400109719E-009
                    1                    2                    2                    5  -3.4938269092080199E-009
                    1                    2                    4                    2   2.6978472233984974E-010
                    1                    2                    5                    2   2.9675712464628801E-009
                    1                    3                    3                    1  -3.1477820350289676E-010
                    1                    3                    3                    4   1.5906871791981914E-009
                    1                    3                    3                    5  -3.4938020319723317E-009
                    1                    3                    4                    3   2.6982063111580246E-010
                    1                    3                    5                    3   2.9675876435028559E-009
                    1                    4                    1                    1   1.7752709643547418E-012
                    1                    4                    1                    5   1.1976688391035495E-010
                    1                    4                    2                    2  -1.0624454452082488E-009
                    1                    4                    3                    3  -1.0624561793272224E-009
                    1                    4                    4                    1   2.3415269723159327E-011
                    1                    4                    4                    4  -4.5321181446832041E-010
                    1                    4                    4                    5  -8.2508985331953416E-010
                    1                    4                    5                    1  -1.1907631825014420E-010
                    1                    4                    5                    4   4.8426680547553058E-010
                    1                    4                    5                    5  -3.5243062217121936E-010
                    1                    5                    1                    1   3.7933231032453406E-011
                    1                    5                    1                    4  -1.1976688391035495E-010
                    1                    5                    2                    2   3.7606911323973051E-010
                    1                    5                    3                    3   3.7607473314165317E-010
                    1                    5                    4                    1  -3.9332164608607556E-010
                    1                    5                    4                    4   8.4411042694532699E-010
                    1                    5                    4                    5   3.4876631790914381E-010
                    1                    5                    5                    1  -1.4006630300045231E-009
                    1                    5                    5                    4   2.1467435190603013E-009
                    1                    5                    5                    5  -2.7188550548440318E-010
                    1                    6                    1                    9  -3.5729064151723833E-010
                    1                    6                    1                   10  -1.2809261637491964E-010
                    1                    6                    2                    7   2.3201254598093080E-009
                    1                    6                    3                    8   2.3202354620943666E-009
                    1                    6                    4                    6   1.9772827819508620E-010
                    1                    6                    4                    9  -2.1371620861909690E-009
                    1                    6                    4                   10   1.3257142276318357E-009
                    1                    6                    5                    6  -2.8087261683129583E-011
                    1                    6                    5                    9   2.5008945721619047E-009
                    1                    6                    5                   10   4.2984044969218704E-009
                    1                    6                    6                    4   3.5551583899007255E-010
                    1                    6                    6                    5   9.0159393839606139E-011
                    1                    6                    7                    2  -2.3201254598093080E-009
                    1                    6                    8                    3  -2.3202354620943666E-009
                    1                    6                    9                    1  -1.9595347566792043E-010
                    1                    6                    9                    4   2.1371620861909690E-009
                    1                    6                    9                    5  -1.2673036526439363E-009
                    1                    6                   10                    1   6.6020484218443087E-011
                    1                    6                   10                    4  -2.5593051462824423E-009
                    1                    6                   10                    5  -4.2984044969218704E-009
                    1                    7                    2                    9   3.1343180550980065E-009
                    1                    7                    2                   10   3.6042950219469100E-009
                    1                    7                    4                    7   1.0891182643246733E-009
                    1                    7                    5                    7   7.2361544500550504E-009
                    1                    7                    7                    1  -3.1540925427009370E-010
                    1                    7                    7                    4  -1.5437744155938349E-009
                    1                    7                    7                    5  -7.0981219364675205E-009
                    1                    7                    9                    2  -8.1933371892661810E-010
                    1                    7                   10                    2  -4.2685832138920909E-009
                    1                    8                    3                    9   3.1345009574024196E-009
                    1                    8                    3                   10   3.6043248173404929E-009
                    1                    8                    4                    8   1.0891166163373711E-009
                    1                    8                    5                    8   7.2361500718298374E-009
                    1                    8                    8                    1  -3.1542990441835173E-010
                    1                    8                    8                    4  -1.5438139846363219E-009
                    1                    8                    8                    5  -7.0981268303392867E-009
                    1                    8                    9                    3  -8.1929575623806983E-010
                    1                    8                   10                    3  -4.2685624561909774E-009
                    1                    9                    1                    6   3.5729064151723833E-010
                    1                    9                    1                   10   1.0487492818622712E-011
                    1                    9                    2                    7   2.3325767567472511E-009
                    1                    9                    3                    8   2.3326704040593782E-009
                    1                    9                    4                    6  -2.2132108645767090E-010
                    1                    9                    4                    9   9.3279985471927951E-010
                    1                    9                    4                   10   2.7782110610804437E-009
                    1                    9                    5                    6   4.1214132801004055E-011
                    1                    9                    5                    9   1.3602263237207785E-009
                    1                    9                    5                   10   3.7980525460779013E-009
                    1                    9                    6                    1  -3.5551583899007255E-010
                    1                    9                    6                    5   1.0927994880532976E-010
                    1                    9                    7                    2  -3.3950221869916142E-009
                    1                    9                    8                    3  -3.3951265618337167E-009
                    1                    9                    9                    1   2.4473578719153011E-010
                    1                    9                    9                    4  -1.3860116769570663E-009
                    1                    9                    9                    5  -3.6033009010371861E-009
                    1                    9                   10                    1  -1.6029098187653190E-010
                    1                    9                   10                    4  -8.7595953109304361E-010
                    1                    9                   10                    5  -4.1504831828353961E-009
                    1                   10                    1                    6   1.2809261637491964E-010
                    1                   10                    1                    9  -1.0487492818622712E-011
                    1                   10                    2                    7   1.9209779502770558E-009
                    1                   10                    3                    8   1.9208677866627138E-009
                    1                   10                    4                    6   9.3869828576842451E-011
                    1                   10                    4                    9   2.4779097502168612E-009
                    1                   10                    4                   10   1.3949246098488022E-010
                    1                   10                    5                    6   1.1375165392957243E-010
                    1                   10                    5                    9   3.5233129851153233E-009
                    1                   10                    5                   10   2.3798748154460481E-009
                    1                   10                    6                    1  -9.0159390370159187E-011
                    1                   10                    6                    4  -1.0927995054005324E-010
                    1                   10                    7                    2  -1.5449088362762264E-009
                    1                   10                    8                    3  -1.5447930540009661E-009
                    1                   10                    9                    1  -4.8719095424587522E-010
                    1                   10                    9                    4  -1.6337993229901919E-009
                    1                   10                    9                    5   2.0927398702852429E-010
                    1                   10                   10                    1  -1.5144151488399871E-009
                    1                   10                   10                    4  -1.3765695926898358E-009
                    1                   10                   10                    5  -2.6517603217424135E-009
                    2                    1                    1                    2   3.1475333450714515E-010
                    2                    1                    2                    4   2.0532250066818136E-009
                    2                    1                    2                    5  -1.6527731800351775E-009
                    2                    1                    4                    2  -3.9135531690326353E-009
                    2                    1                    5                    2   2.1790288380098277E-009
                    2                    2                    1                    4   1.0624454452082488E-009
                    2                    2                    1                    5  -3.7606911323973051E-010
                    2                    2                    2                    3   7.1432102032075099E-012
                    2                    2                    3                    2  -7.1432102032977760E-012
                    2                    2                    4                    1  -1.0624454454598970E-009
                    2                    2                    4                    5  -1.6580725813648581E-009
                    2                    2                    5                    1   3.7606911323559461E-010
                    2                    2                    5                    4   1.6580725813095429E-009
                    2                    3                    2                    2  -7.1432102032075099E-012
                    2                    3                    3                    2  -1.6300294447546548E-012
                    2                    3                    3                    3  -7.1436119623803872E-012
                    2                    4                    1                    2  -1.5905434400109719E-009
                    2                    4                    2                    1  -2.0532250066818136E-009
                    2                    4                    2                    5   4.4266437964832206E-008
                    2                    4                    3                    4   4.1824548896830728E-012
                    2                    4                    3                    5  -2.3385906577484213E-012
                    2                    4                    4                    2   5.5722922165379885E-008
                    2                    4                    4                    3  -2.0900428034663640E-012
                    2                    4                    5                    2  -4.5259955123999607E-008
                    2                    4                    5                    3   2.4005974508172999E-012
                    2                    5                    1                    2   3.4938269092080199E-009
                    2                    5                    2                    1   1.6527731800351775E-009
                    2                    5                    2                    4  -4.4266437964832206E-008
                    2                    5                    3                    4  -2.3385734615088649E-012
[...]
    7    6    6    1       -0.0234443984
    7    6    6    4       -0.0590845448
    7    6    6    5       -0.0039142974
    7    6    6    6        0.0065589394
    7    6    6    7        0.0572935268
    7    6    6    8        0.0312710531
    7    7    6    1        0.0091185538
    7    7    6    4       -0.0026966833
    7    7    6    5       -0.2246506428
    7    7    6    6        0.5194285973
    7    7    6    7       -0.0098624331
    7    7    6    8        0.0116115265
    7    8    6    1       -0.0103489220
    7    8    6    4       -0.0222669314
    7    8    6    5       -0.0150922517
    7    8    6    6        0.0305923339
    7    8    6    7        0.0175441724
    7    8    6    8        0.0140822513
    7    1    7    1        0.0863400877
    7    1    7    4       -0.0146617895
    7    1    7    5       -0.0022473625
    7    1    7    6        0.0049916292
    7    1    7    7        0.0210097355
    7    1    7    8       -0.0153011443
    7    2    7    2        0.0519855493
    7    3    7    3        0.0519856879
    7    4    7    1       -0.0146617895
    7    4    7    4        0.1062855277
    7    4    7    5       -0.0135265589
    7    4    7    6        0.0074084533
    7    4    7    7       -0.1230782739
    7    4    7    8       -0.0032852263
    7    5    7    1       -0.0022473625
    7    5    7    4       -0.0135265589
    7    5    7    5        0.0515373791
    7    5    7    6       -0.0530349715
    7    5    7    7        0.0324657179
    7    5    7    8       -0.0137945999
    7    6    7    1        0.0049916292
    7    6    7    4        0.0074084533
    7    6    7    5       -0.0530349715
    7    6    7    6        0.0572307242
    7    6    7    7       -0.0098624331
    7    6    7    8        0.0175490578
    7    7    7    1        0.0210097355
    7    7    7    4       -0.1230782739
    7    7    7    5        0.0324657179
    7    7    7    6       -0.0098624331
    7    7    7    7        0.6840292103
    7    7    7    8        0.0221075311
    7    8    7    1       -0.0153011443
    7    8    7    4       -0.0032852263
    7    8    7    5       -0.0137945999
    7    8    7    6        0.0175490578
    7    8    7    7        0.0221075311
    7    8    7    8        0.0370451877
    7    1    8    1       -0.0546848430
    7    1    8    4        0.0120817935
    7    1    8    5       -0.0042786353
    7    1    8    6        0.0035507886
    7    1    8    7       -0.0153846400
    7    1    8    8        0.0128192128
    7    2    8    2       -0.0057509797
    7    2    8    3       -0.0000000009
    7    3    8    2        0.0000000009
    7    3    8    3       -0.0057489481
    7    4    8    1        0.0110954680
    7    4    8    4       -0.0186911873
    7    4    8    5        0.0303958732
    7    4    8    6       -0.0191036878
    7    4    8    7       -0.0048728761
    7    4    8    8       -0.1440375880
    7    5    8    1        0.0085396906
    7    5    8    4        0.0167917301
    7    5    8    5        0.0206152910
    7    5    8    6       -0.0253482713
    7    5    8    7       -0.0139473812
    7    5    8    8        0.0193432846
    7    6    8    1       -0.0114242137
    7    6    8    4       -0.0107744369
    7    6    8    5       -0.0362130524
    7    6    8    6        0.0312245695
    7    6    8    7        0.0175441724
    7    6    8    8        0.0018625992
    7    7    8    1       -0.0153472619
    7    7    8    4        0.0498389415
    7    7    8    5       -0.0382732899
    7    7    8    6        0.0116115265
    7    7    8    7        0.0221075311
    7    7    8    8        0.6947389439
    7    8    8    1        0.0020518820
    7    8    8    4       -0.0265879809
    7    8    8    5       -0.0184034168
    7    8    8    6        0.0139823758
    7    8    8    7        0.0370784432
    7    8    8    8        0.0257532653
    8    1    1    1       -0.3201844490
    8    1    1    4        0.0553190717
    8    1    1    5       -0.0146176640
    8    1    1    6        0.0085847673
    8    1    1    7       -0.0577689913
    8    1    1    8        0.0444955585
    8    2    1    2        0.0235760502
    8    2    1    3       -0.0000000004
    8    3    1    2        0.0000000004
    8    3    1    3        0.0235792505
    8    4    1    1        0.2569149886
    8    4    1    4       -0.0117578476
    8    4    1    5       -0.0038216170
    8    4    1    6        0.0061333070
    8    4    1    7        0.0151531502
    8    4    1    8       -0.0005787658
    8    5    1    1       -0.1449859520
    8    5    1    4        0.0044369416
    8    5    1    5       -0.0087574407
    8    5    1    6        0.0090696024
    8    5    1    7       -0.0051522751
    8    5    1    8        0.0078785598
    8    6    1    1        0.0936641205
    8    6    1    4       -0.0039004913
    8    6    1    5        0.0081934786
    8    6    1    6       -0.0083575774
    8    6    1    7        0.0035068313
    8    6    1    8       -0.0074399745
    8    7    1    1       -0.1066782878
    8    7    1    4        0.0149819712
    8    7    1    5        0.0076736072
    8    7    1    6       -0.0103489220
    8    7    1    7       -0.0153011443
    8    7    1    8        0.0020518820
    8    8    1    1        1.1091722762
    8    8    1    4       -0.0138764103
    8    8    1    5       -0.0004626795
    8    8    1    6        0.0026428200
    8    8    1    7        0.0128192128
    8    8    1    8       -0.0075322365
    8    1    2    2       -0.0036910337
    8    1    2    3        0.0000000006
    8    2    2    1        0.0257881648
    8    2    2    4        0.0751844236
    8    2    2    5       -0.0040316446
    8    2    2    6       -0.0039910809
    8    2    2    7       -0.0062130259
    8    2    2    8        0.0575991226
    8    3    2    1       -0.0000000113
    8    3    2    4       -0.0000000178
    8    3    2    5        0.0000000013
    8    3    2    6       -0.0000000004
    8    3    2    7       -0.0000000014
    8    4    2    2        0.1103318416
    8    4    2    3       -0.0000000227
    8    5    2    2       -0.0564066719
    8    5    2    3        0.0000000101
    8    6    2    2        0.0184278330
    8    6    2    3       -0.0000000006
    8    7    2    2        0.0111848626
    8    7    2    3       -0.0000000005
    8    8    2    2        0.7743414032
    8    1    3    2       -0.0000000006
    8    1    3    3       -0.0036901628
    8    2    3    1        0.0000000113
    8    2    3    4        0.0000000178
    8    2    3    5       -0.0000000013
    8    2    3    6        0.0000000004
    8    2    3    7        0.0000000013
    8    3    3    1        0.0257916515
    8    3    3    4        0.0751987421
    8    3    3    5       -0.0040318305
    8    3    3    6       -0.0039920552
    8    3    3    7       -0.0062121608
    8    3    3    8        0.0576127994
    8    4    3    2        0.0000000227
    8    4    3    3        0.1103381881
    8    5    3    2       -0.0000000101
    8    5    3    3       -0.0564068545
    8    6    3    2        0.0000000006
    8    6    3    3        0.0184272870
    8    7    3    2        0.0000000005
    8    7    3    3        0.0111855976
    8    8    3    3        0.7743495038
    8    1    4    1        0.0545434000
    8    1    4    4       -0.0113974236
    8    1    4    5       -0.0110833042
    8    1    4    6        0.0114707683
    8    1    4    7        0.0138299048
    8    1    4    8       -0.0005787658
    8    2    4    2        0.0712806058
    8    2    4    3        0.0000000009
    8    3    4    2       -0.0000000009
    8    3    4    3        0.0712943660
    8    4    4    1       -0.0128529048
    8    4    4    4        0.0852764869
    8    4    4    5       -0.0089245462
    8    4    4    6       -0.0036203769
    8    4    4    7       -0.0172826889
    8    4    4    8        0.0880942101
    8    5    4    1        0.0046522512
    8    5    4    4       -0.0548400692
    8    5    4    5       -0.0651123657
    8    5    4    6        0.0554208762
    8    5    4    7        0.0275337580
    8    5    4    8       -0.0156930327
    8    6    4    1       -0.0038654489
    8    6    4    4        0.0163442990
    8    6    4    5        0.0522803061
    8    6    4    6       -0.0425482379
    8    6    4    7       -0.0190712573
    8    6    4    8        0.0075041351
    8    7    4    1        0.0148219217
    8    7    4    4        0.0243538741
    8    7    4    5        0.0278854691
    8    7    4    6       -0.0222669314
    8    7    4    7       -0.0032852263
    8    7    4    8       -0.0265879809
    8    8    4    1       -0.0138764103
    8    8    4    4        0.8202103665
    8    8    4    5       -0.0366073512
    8    8    4    6       -0.0039264484
    8    8    4    7       -0.1440375880
    8    8    4    8        0.0299567330
    8    1    5    1       -0.0147243583
    8    1    5    4       -0.0110530717
    8    1    5    5       -0.0083110512
    8    1    5    6        0.0064808522
    8    1    5    7        0.0087183840
    8    1    5    8        0.0078785598
    8    2    5    2       -0.0037471259
    8    3    5    3       -0.0037472013
    8    4    5    1       -0.0040881803
    8    4    5    4       -0.0087570622
    8    4    5    5        0.0121394525
    8    4    5    6       -0.0154846427
    8    4    5    7        0.0147114982
    8    4    5    8       -0.0156930327
    8    5    5    1       -0.0093776583
    8    5    5    4       -0.0656690664
    8    5    5    5       -0.0578022874
    8    5    5    6        0.0141769552
    8    5    5    7        0.0261079000
    8    5    5    8        0.0810336028
    8    6    5    1        0.0083090488
    8    6    5    4        0.0529046259
    8    6    5    5        0.0293061798
    8    6    5    6       -0.0003858481
    8    6    5    7       -0.0247409007
    8    6    5    8       -0.0574853459
    8    7    5    1        0.0076058528
    8    7    5    4        0.0275964898
    8    7    5    5        0.0329204522
    8    7    5    6       -0.0150922517
    8    7    5    7       -0.0137945999
    8    7    5    8       -0.0184034168
    8    8    5    1       -0.0004626795
    8    8    5    4       -0.0366073512
    8    8    5    5        0.6129163889
    8    8    5    6       -0.2522487901
    8    8    5    7        0.0193432846
    8    8    5    8       -0.0265333444
    8    1    6    1        0.0087702434
    8    1    6    4        0.0112054277
    8    1    6    5        0.0052704307
    8    1    6    6       -0.0111561080
    8    1    6    7       -0.0113295224
    8    1    6    8       -0.0074399745
    8    2    6    2       -0.0026622789
    8    2    6    3        0.0000000002
    8    3    6    2       -0.0000000002
    8    3    6    3       -0.0026630660
    8    4    6    1        0.0061392631
    8    4    6    4       -0.0001813405
    8    4    6    5       -0.0202238635
    8    4    6    6        0.0158329913
    8    4    6    7       -0.0106039529
    8    4    6    8        0.0075041351
    8    5    6    1        0.0082210689
    8    5    6    4        0.0502242634
    8    5    6    5        0.0095792166
    8    5    6    6       -0.0571150173
    8    5    6    7       -0.0359493908
    8    5    6    8       -0.0574853459
    8    6    6    1       -0.0085763059
    8    6    6    4       -0.0441162144
    8    6    6    5       -0.0004210314
    8    6    6    6        0.0393945942
    8    6    6    7        0.0312710531
    8    6    6    8        0.0494604393
    8    7    6    1       -0.0102591468
    8    7    6    4       -0.0223913105
    8    7    6    5       -0.0165884000
    8    7    6    6        0.0305923339
    8    7    6    7        0.0175490578
    8    7    6    8        0.0139823758
    8    8    6    1        0.0026428200
    8    8    6    4       -0.0039264484
    8    8    6    5       -0.2522487901
    8    8    6    6        0.5543460887
    8    8    6    7        0.0018625992
    8    8    6    8       -0.0033798156
    8    1    7    1       -0.0546848430
    8    1    7    4        0.0110954680
    8    1    7    5        0.0085396906
    8    1    7    6       -0.0114242137
    8    1    7    7       -0.0153472619
    8    1    7    8        0.0020518820
    8    2    7    2       -0.0057509797
    8    2    7    3        0.0000000009
    8    3    7    2       -0.0000000009
    8    3    7    3       -0.0057489481
    8    4    7    1        0.0120817935
    8    4    7    4       -0.0186911873
    8    4    7    5        0.0167917301
    8    4    7    6       -0.0107744369
    8    4    7    7        0.0498389415
    8    4    7    8       -0.0265879809
    8    5    7    1       -0.0042786353
    8    5    7    4        0.0303958732
    8    5    7    5        0.0206152910
    8    5    7    6       -0.0362130524
    8    5    7    7       -0.0382732899
    8    5    7    8       -0.0184034168
    8    6    7    1        0.0035507886
    8    6    7    4       -0.0191036878
    8    6    7    5       -0.0253482713
    8    6    7    6        0.0312245695
    8    6    7    7        0.0116115265
    8    6    7    8        0.0139823758
    8    7    7    1       -0.0153846400
    8    7    7    4       -0.0048728761
    8    7    7    5       -0.0139473812
    8    7    7    6        0.0175441724
    8    7    7    7        0.0221075311
    8    7    7    8        0.0370784432
    8    8    7    1        0.0128192128
    8    8    7    4       -0.1440375880
    8    8    7    5        0.0193432846
    8    8    7    6        0.0018625992
    8    8    7    7        0.6947389439
    8    8    7    8        0.0257532653
    8    1    8    1        0.0417573037
    8    1    8    4        0.0009995698
    8    1    8    5        0.0068189512
    8    1    8    6       -0.0074832041
    8    1    8    7        0.0019940410
    8    1    8    8       -0.0075322365
    8    2    8    2        0.0549129812
    8    3    8    3        0.0549246243
    8    4    8    1        0.0009995698
    8    4    8    4        0.0871392825
    8    4    8    5       -0.0154999073
    8    4    8    6        0.0078345314
    8    4    8    7       -0.0259415278
    8    4    8    8        0.0299567330
    8    5    8    1        0.0068189512
    8    5    8    4       -0.0154999073
    8    5    8    5        0.0953146720
    8    5    8    6       -0.0572791183
    8    5    8    7       -0.0185111333
    8    5    8    8       -0.0265333444
    8    6    8    1       -0.0074832041
    8    6    8    4        0.0078345314
    8    6    8    5       -0.0572791183
    8    6    8    6        0.0489975680
    8    6    8    7        0.0140822513
    8    6    8    8       -0.0033798156
    8    7    8    1        0.0019940410
    8    7    8    4       -0.0259415278
    8    7    8    5       -0.0185111333
    8    7    8    6        0.0140822513
    8    7    8    7        0.0370451877
    8    7    8    8        0.0257532653
    8    8    8    1       -0.0075322365
    8    8    8    4        0.0299567330
    8    8    8    5       -0.0265333444
    8    8    8    6       -0.0033798156
    8    8    8    7        0.0257532653
    8    8    8    8        0.8132802539
 end_two_electron_integrals

 Parallel integral file used       3 records with       0 large values


 Task  times  cpu:      145.7s     wall:      146.5s


                                NWChem Input Module
                                -------------------


 Summary of allocated global arrays
-----------------------------------
  No active global arrays


MA_summarize_allocated_blocks: starting scan ...
MA_summarize_allocated_blocks: scan completed: 0 heap blocks, 0 stack blocks
MA usage statistics:

	allocation statistics:
					      heap	     stack
					      ----	     -----
	current number of blocks	         0	         0
	maximum number of blocks	        18	        42
	current total bytes		         0	         0
	maximum total bytes		   9520896	1566946104
	maximum total K-bytes		      9521	   1566947
	maximum total M-bytes		        10	      1567


                                     CITATION
                                     --------
                Please cite the following reference when publishing
                           results obtained with NWChem:

          E. Apra, E. J. Bylaska, W. A. de Jong, N. Govind, K. Kowalski,
       T. P. Straatsma, M. Valiev, H. J. J. van Dam, Y. Alexeev, J. Anchell,
       V. Anisimov, F. W. Aquino, R. Atta-Fynn, J. Autschbach, N. P. Bauman,
     J. C. Becca, D. E. Bernholdt, K. Bhaskaran-Nair, S. Bogatko, P. Borowski,
         J. Boschen, J. Brabec, A. Bruner, E. Cauet, Y. Chen, G. N. Chuev,
      C. J. Cramer, J. Daily, M. J. O. Deegan, T. H. Dunning Jr., M. Dupuis,
   K. G. Dyall, G. I. Fann, S. A. Fischer, A. Fonari, H. Fruchtl, L. Gagliardi,
      J. Garza, N. Gawande, S. Ghosh, K. Glaesemann, A. W. Gotz, J. Hammond,
       V. Helms, E. D. Hermes, K. Hirao, S. Hirata, M. Jacquelin, L. Jensen,
   B. G. Johnson, H. Jonsson, R. A. Kendall, M. Klemm, R. Kobayashi, V. Konkov,
      S. Krishnamoorthy, M. Krishnan, Z. Lin, R. D. Lins, R. J. Littlefield,
      A. J. Logsdail, K. Lopata, W. Ma, A. V. Marenich, J. Martin del Campo,
   D. Mejia-Rodriguez, J. E. Moore, J. M. Mullin, T. Nakajima, D. R. Nascimento,
    J. A. Nichols, P. J. Nichols, J. Nieplocha, A. Otero-de-la-Roza, B. Palmer,
    A. Panyala, T. Pirojsirikul, B. Peng, R. Peverati, J. Pittner, L. Pollack,
   R. M. Richard, P. Sadayappan, G. C. Schatz, W. A. Shelton, D. W. Silverstein,
   D. M. A. Smith, T. A. Soares, D. Song, M. Swart, H. L. Taylor, G. S. Thomas,
            V. Tipparaju, D. G. Truhlar, K. Tsemekhman, T. Van Voorhis,
      A. Vazquez-Mayagoitia, P. Verma, O. Villa, A. Vishnu, K. D. Vogiatzis,
        D. Wang, J. H. Weare, M. J. Williamson, T. L. Windus, K. Wolinski,
        A. T. Wong, Q. Wu, C. Yang, Q. Yu, M. Zacharias, Z. Zhang, Y. Zhao,
                                and R. J. Harrison
                        "NWChem: Past, present, and future
                         J. Chem. Phys. 152, 184102 (2020)
                               doi:10.1063/5.0004997

                                      AUTHORS
                                      -------
  E. Apra, E. J. Bylaska, N. Govind, K. Kowalski, M. Valiev, D. Mejia-Rodriguez,
       A. Kunitsa, N. P. Bauman, A. Panyala, W. A. de Jong, T. P. Straatsma,
        H. J. J. van Dam, D. Wang, T. L. Windus, J. Hammond, J. Autschbach,
    K. Bhaskaran-Nair, J. Brabec, K. Lopata, S. A. Fischer, S. Krishnamoorthy,
     M. Jacquelin, W. Ma, M. Klemm, O. Villa, Y. Chen, V. Anisimov, F. Aquino,
    S. Hirata, M. T. Hackler, Eric Hermes, L. Jensen, J. E. Moore, J. C. Becca,
      V. Konjkov, T. Risthaus, M. Malagoli, A. Marenich, A. Otero-de-la-Roza,
        J. Mullin, P. Nichols, R. Peverati, J. Pittner, Y. Zhao, P.-D. Fan,
        A. Fonari, M. J. Williamson, R. J. Harrison, J. R. Rehr, M. Dupuis,
     D. Silverstein, D. M. A. Smith, J. Nieplocha, V. Tipparaju, M. Krishnan,
     B. E. Van Kuiken, A. Vazquez-Mayagoitia, M. Swart, Q. Wu, T. Van Voorhis,
     A. A. Auer, M. Nooijen, L. D. Crosby, E. Brown, G. Cisneros, G. I. Fann,
   H. Fruchtl, J. Garza, K. Hirao, R. A. Kendall, J. A. Nichols, K. Tsemekhman,
    K. Wolinski, J. Anchell, D. E. Bernholdt, P. Borowski, T. Clark, D. Clerc,
   H. Dachsel, M. J. O. Deegan, K. Dyall, D. Elwood, E. Glendening, M. Gutowski,
   A. C. Hess, J. Jaffe, B. G. Johnson, J. Ju, R. Kobayashi, R. Kutteh, Z. Lin,
   R. Littlefield, X. Long, B. Meng, T. Nakajima, S. Niu, L. Pollack, M. Rosing,
   K. Glaesemann, G. Sandrone, M. Stave, H. Taylor, G. Thomas, J. H. van Lenthe,
                               A. T. Wong, Z. Zhang.

 Total times  cpu:      150.2s     wall:      156.2s
