 argument  1 = input.nw
  NWChem w/ OpenMP: maximum threads =    1



============================== echo of input deck ==============================
 echo
 start H2
 title "H2"

 memory total 24 gb

 geometry units bohr
 symmetry c1
        H  0.00000000  0.00000000  0.00000000
        H  0.00000000  3.70  0.00000000
 end

 basis
   * library cc-pVQZ
 end

 mcscf
   active  2
   actelec 2
   multiplicity 1
   maxiter 40
   vectors input H2.mos
   vectors output H2.mos
 end

 task mcscf

 scf
   vectors input H2.mos
   vectors output H2-3.70.mos
   noscf
 end

 tce
   2eorb
   2emet 13
   ccsd
   maxiter 300
   diis 40
   lshift 0.2
 end

 set tce:print_integrals T
 set tce:qorb 2
 set tce:qela 1
 set tce:qelb 1

# set tce:qducc T
# set tce:nactv 1
# set tce:nonhf T
# set tce:ducc_model 6

 set tce:printtol 0.02

 task tce
================================================================================


                                         
                                         


             Northwest Computational Chemistry Package (NWChem) 7.0.1
             --------------------------------------------------------


                    Environmental Molecular Sciences Laboratory
                       Pacific Northwest National Laboratory
                                Richland, WA 99352

                              Copyright (c) 1994-2020
                       Pacific Northwest National Laboratory
                            Battelle Memorial Institute

             NWChem is an open-source computational chemistry package
                        distributed under the terms of the
                      Educational Community License (ECL) 2.0
             A copy of the license is included with this distribution
                              in the LICENSE.TXT file

                                  ACKNOWLEDGMENT
                                  --------------

            This software and its documentation were developed at the
            EMSL at Pacific Northwest National Laboratory, a multiprogram
            national laboratory, operated for the U.S. Department of Energy
            by Battelle under Contract Number DE-AC05-76RL01830. Support
            for this work was provided by the Department of Energy Office
            of Biological and Environmental Research, Office of Basic
            Energy Sciences, and the Office of Advanced Scientific Computing.


           Job information
           ---------------

    hostname        = WE46210
    program         = /home/baum612/code/nwchem/bin/LINUX64/nwchem
    date            = Thu Nov  9 13:50:38 2023

    compiled        = Mon_Nov_06_10:06:57_2023
    source          = /home/baum612/code/nwchem
    nwchem branch   = 7.0.0
    nwchem revision = nwchem_on_git-4191-g39d87d64de
    ga revision     = 5.8.1
    use scalapack   = F
    input           = input.nw
    prefix          = H2.
    data base       = ./H2.db
    status          = startup
    nproc           =        1
    time left       =     -1s



           Memory information
           ------------------

    heap     =  805306362 doubles =   6144.0 Mbytes
    stack    =  805306367 doubles =   6144.0 Mbytes
    global   = 1610612736 doubles =  12288.0 Mbytes (distinct from heap & stack)
    total    = 3221225465 doubles =  24576.0 Mbytes
    verify   = yes
    hardfail = no 


           Directory information
           ---------------------

  0 permanent = .
  0 scratch   = .




                                NWChem Input Module
                                -------------------


                                        H2
                                        --
 Turning off AUTOSYM since
 SYMMETRY directive was detected!


          ------
          auto-z
          ------
     1 autoz failed with cvr_scaling = 1.2 changing to 1.3
     2 autoz failed with cvr_scaling = 1.3 changing to 1.4
     3 autoz failed with cvr_scaling = 1.4 changing to 1.5
     4 autoz failed with cvr_scaling = 1.5 changing to 1.6
     5 autoz failed with cvr_scaling = 1.6 changing to 1.7

 AUTOZ failed to generate good internal coordinates.
 Cartesian coordinates will be used in optimizations.



                             Geometry "geometry" -> ""
                             -------------------------

 Output coordinates in a.u. (scale by  1.000000000 to convert to a.u.)

  No.       Tag          Charge          X              Y              Z
 ---- ---------------- ---------- -------------- -------------- --------------
    1 H                    1.0000     0.00000000    -1.85000000     0.00000000
    2 H                    1.0000     0.00000000     1.85000000     0.00000000

      Atomic Mass 
      ----------- 

      H                  1.007825


 Effective nuclear repulsion energy (a.u.)       0.2702702703

            Nuclear Dipole moment (a.u.) 
            ----------------------------
        X                 Y               Z
 ---------------- ---------------- ----------------
     0.0000000000     0.0000000000     0.0000000000


            XYZ format geometry
            -------------------
     2
 geometry
 H                     0.00000000    -0.97897791     0.00000000
 H                     0.00000000     0.97897791     0.00000000



 Summary of "ao basis" -> "" (cartesian)
 ------------------------------------------------------------------------------
       Tag                 Description            Shells   Functions and Types
 ---------------- ------------------------------  ------  ---------------------
 *                          cc-pVQZ                   on all atoms 


                      Basis "ao basis" -> "ao basis" (cartesian)
                      -----
  H (Hydrogen)
  ------------
            Exponent  Coefficients 
       -------------- ---------------------------------------------------------
  1 S  8.26400000E+01  0.002006
  1 S  1.24100000E+01  0.015343
  1 S  2.82400000E+00  0.075579

  2 S  7.97700000E-01  1.000000

  3 S  2.58100000E-01  1.000000

  4 S  8.98900000E-02  1.000000

  5 P  2.29200000E+00  1.000000

  6 P  8.38000000E-01  1.000000

  7 P  2.92000000E-01  1.000000

  8 D  2.06200000E+00  1.000000

  9 D  6.62000000E-01  1.000000

 10 F  1.39700000E+00  1.000000



 Summary of "ao basis" -> "ao basis" (cartesian)
 ------------------------------------------------------------------------------
       Tag                 Description            Shells   Functions and Types
 ---------------- ------------------------------  ------  ---------------------
 H                          cc-pVQZ                 10       35   4s3p2d1f



                            NWChem Direct MCSCF Module
                            --------------------------


                                        H2


     -----------------------------------
       Basis functions:             70
       Inactive shells:              0
       Active shells:                2
       Active electrons:             2
       Symmetry:                    a       
       Multiplicity:                 1
       Orbital rotations:          136
     -----------------------------------

     -----------------------------------
       E2 extrapolation:             F
       Conjugacy:                    T
       Micro CI relax:               T
       Canonical orbitals:           T
       Maximum iterations:          40
       Converge threshold:    1.00E-04
       Conjugacy resets:            20
       Initial levelshift:        0.10
     -----------------------------------

 Loading old vectors from job with title :

H2


   input molecular orbitals = ./H2.mos
  output molecular orbtials = ./H2.mos

       No. of determinants:             4


  Starting Orbital Energies
    -0.378163    -0.121441     0.263859     0.274532     0.445655     0.445655
     0.518462     0.603842     0.603842     0.853699     1.167095     1.211908
     1.636824     1.843516     1.843516     1.895306     1.895306     1.913914
     1.913914     2.051568     2.051568     2.057744     2.127934     2.127934
     2.209577     2.388528     2.388528     3.001471     3.061961     3.148147
     4.404981     4.407073     4.407073     4.521675     4.521675     4.759521
     5.982486     5.982486     6.030013     6.048945     6.048945     6.065692
     6.065692     6.068078     6.068078     6.086084     6.086084     6.186552
     6.186552     6.495388     8.040683     8.040683     8.110990     8.110990
     8.161961     8.161961     8.200665     8.354954     8.354954     8.947121
     9.629704     9.687843     9.694042     9.694042     9.749951     9.749951
     9.856809     9.963927    22.427735    23.096950

  Orbital Symmetry Irreps
a    a    a    a    a    a    a    a    a    a    a    a    a    a    a   
a    a    a    a    a    a    a    a    a    a    a    a    a    a    a   
a    a    a    a    a    a    a    a    a    a    a    a    a    a    a   
a    a    a    a    a    a    a    a    a    a    a    a    a    a    a   
a    a    a    a    a    a    a    a    a    a   

 Integral file          = ./H2.aoints.0
 Record size in doubles =  65536        No. of integs per rec  =  43688
 Max. records in memory =     99        Max. records in file   = 280238
 No. of bits per label  =      8        No. of bits per value  =     64


 #quartets = 2.206D+04 #integrals = 8.185D+05 #direct =  0.0% #cached =100.0%




          %%%%% MacroIteration   1 %%%%%


          Number of sigma calls:        2
                       o<<<<< (aa):             0.00
                       o<<<<< (bb):             0.00
                       o<<<<< (ab):             0.00
                       o<<<<< (total)           0.00
                       o<<<<< (aa) ff           0.00
                       o<<<<< (aa) gop          0.00
                       o<<<<< (aa) dot          0.00
                       o<<<<< (ab) str          0.00
                       o<<<<< (ab) gath         0.00
                       o<<<<< (ab) dotab        0.00
                       o<<<<< (ab) scat         0.00
                       o<<<<< (ab) sync         0.00
                       o<<<<< Density           0.00
                       o<<<<< Density one       0.00
                       o<<<<< Density two       0.00
                       o<<<<< Density ab        0.00
                       o<<<<< Spin adapt        0.00
                       o<<<<< Symm adapt        0.00

                       o<<<<< (ab) max sync:      0.00

           >>>| Valence CI:             -1.290196752561
           >>>| MCSCF energy:           -1.019926482291
           >>>| Gradient norm:          0.323486788D-02

                              ----- Line search ------

        step       energy         lsg     num-lsg   num-lsh   lsrat    time
      ------- ---------------- --------- --------- --------- ------- --------
       0.0000      -1.01992648 -2.81D-06  0.00D+00  0.00D+00 0.0D+00      0.3

          Number of sigma calls:        2
                       o<<<<< (aa):             0.00
                       o<<<<< (bb):             0.00
                       o<<<<< (ab):             0.00
                       o<<<<< (total)           0.00
                       o<<<<< (aa) ff           0.00
                       o<<<<< (aa) gop          0.00
                       o<<<<< (aa) dot          0.00
                       o<<<<< (ab) str          0.00
                       o<<<<< (ab) gath         0.00
                       o<<<<< (ab) dotab        0.00
                       o<<<<< (ab) scat         0.00
                       o<<<<< (ab) sync         0.00
                       o<<<<< Density           0.00
                       o<<<<< Density one       0.00
                       o<<<<< Density two       0.00
                       o<<<<< Density ab        0.00
                       o<<<<< Spin adapt        0.00
                       o<<<<< Symm adapt        0.00

                       o<<<<< (ab) max sync:      0.00
       1.0000      -1.01992792 -6.50D-08 -6.51D-08  2.74D-06 2.3D-02      0.3
     --- Orbitals canonicalized ---



          %%%%% MacroIteration   2 %%%%%


          Number of sigma calls:        2
                       o<<<<< (aa):             0.00
                       o<<<<< (bb):             0.00
                       o<<<<< (ab):             0.00
                       o<<<<< (total)           0.00
                       o<<<<< (aa) ff           0.00
                       o<<<<< (aa) gop          0.00
                       o<<<<< (aa) dot          0.00
                       o<<<<< (ab) str          0.00
                       o<<<<< (ab) gath         0.00
                       o<<<<< (ab) dotab        0.00
                       o<<<<< (ab) scat         0.00
                       o<<<<< (ab) sync         0.00
                       o<<<<< Density           0.00
                       o<<<<< Density one       0.00
                       o<<<<< Density two       0.00
                       o<<<<< Density ab        0.00
                       o<<<<< Spin adapt        0.00
                       o<<<<< Symm adapt        0.00

                       o<<<<< (ab) max sync:      0.00

           >>>| Valence CI:             -1.290198188430
           >>>| MCSCF energy:           -1.019927918160
           >>>| Gradient norm:          0.124152213D-03
     --- Conjugacy reset ---

                              ----- Line search ------

        step       energy         lsg     num-lsg   num-lsh   lsrat    time
      ------- ---------------- --------- --------- --------- ------- --------
       0.0000      -1.01992792 -6.72D-09  0.00D+00  0.00D+00 0.0D+00      0.4

          Number of sigma calls:        2
                       o<<<<< (aa):             0.00
                       o<<<<< (bb):             0.00
                       o<<<<< (ab):             0.00
                       o<<<<< (total)           0.00
                       o<<<<< (aa) ff           0.00
                       o<<<<< (aa) gop          0.00
                       o<<<<< (aa) dot          0.00
                       o<<<<< (ab) str          0.00
                       o<<<<< (ab) gath         0.00
                       o<<<<< (ab) dotab        0.00
                       o<<<<< (ab) scat         0.00
                       o<<<<< (ab) sync         0.00
                       o<<<<< Density           0.00
                       o<<<<< Density one       0.00
                       o<<<<< Density two       0.00
                       o<<<<< Density ab        0.00
                       o<<<<< Spin adapt        0.00
                       o<<<<< Symm adapt        0.00

                       o<<<<< (ab) max sync:      0.00
       1.0000      -1.01992792 -8.58D-10 -8.58D-10  5.86D-09 1.3D-01      0.5

          Number of sigma calls:        2
                       o<<<<< (aa):             0.00
                       o<<<<< (bb):             0.00
                       o<<<<< (ab):             0.00
                       o<<<<< (total)           0.00
                       o<<<<< (aa) ff           0.00
                       o<<<<< (aa) gop          0.00
                       o<<<<< (aa) dot          0.00
                       o<<<<< (ab) str          0.00
                       o<<<<< (ab) gath         0.00
                       o<<<<< (ab) dotab        0.00
                       o<<<<< (ab) scat         0.00
                       o<<<<< (ab) sync         0.00
                       o<<<<< Density           0.00
                       o<<<<< Density one       0.00
                       o<<<<< Density two       0.00
                       o<<<<< Density ab        0.00
                       o<<<<< Spin adapt        0.00
                       o<<<<< Symm adapt        0.00

                       o<<<<< (ab) max sync:      0.00
       1.1464      -1.01992792  8.64D-14  5.36D-14  5.86D-09 1.3D-05      0.5



          %%%%% MacroIteration   3 %%%%%


          Number of sigma calls:        1
                       o<<<<< (aa):             0.00
                       o<<<<< (bb):             0.00
                       o<<<<< (ab):             0.00
                       o<<<<< (total)           0.00
                       o<<<<< (aa) ff           0.00
                       o<<<<< (aa) gop          0.00
                       o<<<<< (aa) dot          0.00
                       o<<<<< (ab) str          0.00
                       o<<<<< (ab) gath         0.00
                       o<<<<< (ab) dotab        0.00
                       o<<<<< (ab) scat         0.00
                       o<<<<< (ab) sync         0.00
                       o<<<<< Density           0.00
                       o<<<<< Density one       0.00
                       o<<<<< Density two       0.00
                       o<<<<< Density ab        0.00
                       o<<<<< Spin adapt        0.00
                       o<<<<< Symm adapt        0.00

                       o<<<<< (ab) max sync:      0.00

           >>>| Valence CI:             -1.290198192281
           >>>| MCSCF energy:           -1.019927922011
           >>>| Gradient norm:          0.770157926D-05




     ==============================
            MCSCF Converged
     ==============================



          Canonical Eigenvalues

              1      
    1   -0.3745
    2   -0.1249
    3    0.2647
    4    0.2747
    5    0.4465
    6    0.4465
    7    0.5140
    8    0.6012
    9    0.6012
   10    0.8491
   11    1.1655
   12    1.2119
   13    1.6441
   14    1.8423
   15    1.8423
   16    1.8930
   17    1.8930
   18    1.9231
   19    1.9231
   20    2.0476
   21    2.0547
   22    2.0547
   23    2.1244
   24    2.1244
   25    2.1932
   26    2.3720
   27    2.3720
   28    2.9740
   29    3.0656
   30    3.1415
   31    4.3831
   32    4.4098
   33    4.4098
   34    4.5193
   35    4.5193
   36    4.7689
   37    5.9942
   38    5.9942
   39    6.0338
   40    6.0521
   41    6.0521
   42    6.0658
   43    6.0658
   44    6.0677
   45    6.0677
   46    6.0826
   47    6.0826
   48    6.1689
   49    6.1689
   50    6.4387
   51    8.0407
   52    8.0407
   53    8.1129
   54    8.1129
   55    8.1596
   56    8.1596
   57    8.1776
   58    8.3408
   59    8.3408
   60    8.9105
   61    9.6279
   62    9.6881
   63    9.6931
   64    9.6931
   65    9.7498
   66    9.7498
   67    9.8324
   68    9.9632
   69   22.3772
   70   23.0917


          Converged CI vector

   Index           Coefficient          Config. Occupation
         1         -0.88801211          1  1
         4          0.45982007          2  2

          Number of sigma calls:        1
                       o<<<<< (aa):             0.00
                       o<<<<< (bb):             0.00
                       o<<<<< (ab):             0.00
                       o<<<<< (total)           0.00
                       o<<<<< (aa) ff           0.00
                       o<<<<< (aa) gop          0.00
                       o<<<<< (aa) dot          0.00
                       o<<<<< (ab) str          0.00
                       o<<<<< (ab) gath         0.00
                       o<<<<< (ab) dotab        0.00
                       o<<<<< (ab) scat         0.00
                       o<<<<< (ab) sync         0.00
                       o<<<<< Density           0.00
                       o<<<<< Density one       0.00
                       o<<<<< Density two       0.00
                       o<<<<< Density ab        0.00
                       o<<<<< Spin adapt        0.00
                       o<<<<< Symm adapt        0.00

                       o<<<<< (ab) max sync:      0.00



          Natural orbital occupation numbers

              1      
    1    1.5771
    2    0.4229


          Number of sigma calls:        2
                       o<<<<< (aa):             0.00
                       o<<<<< (bb):             0.00
                       o<<<<< (ab):             0.00
                       o<<<<< (total)           0.00
                       o<<<<< (aa) ff           0.00
                       o<<<<< (aa) gop          0.00
                       o<<<<< (aa) dot          0.00
                       o<<<<< (ab) str          0.00
                       o<<<<< (ab) gath         0.00
                       o<<<<< (ab) dotab        0.00
                       o<<<<< (ab) scat         0.00
                       o<<<<< (ab) sync         0.00
                       o<<<<< Density           0.00
                       o<<<<< Density one       0.00
                       o<<<<< Density two       0.00
                       o<<<<< Density ab        0.00
                       o<<<<< Spin adapt        0.00
                       o<<<<< Symm adapt        0.00

                       o<<<<< (ab) max sync:      0.00


       Final MCSCF results 
       ------------------- 

       Total MCSCF energy =     -1.019927922011
            Gradient norm =      7.7D-06

    CPU time for solution =      0.6s
   Wall time for solution =      0.6s



                        Analysis of MCSCF natural orbitals
                        ----------------------------------

 Vector    1  Occ=1.577131D+00  E=-3.744852D-01  Symmetry=a
              MO Center=  2.9D-17, -3.4D-15, -2.1D-16, r^2= 1.7D+00
   Bfn.  Coefficient  Atom+Function         Bfn.  Coefficient  Atom+Function  
  ----- ------------  ---------------      ----- ------------  ---------------
     3      0.303216  1 H  s                 38      0.303216  2 H  s          
     4      0.198284  1 H  s                 39      0.198284  2 H  s          
     2      0.160352  1 H  s                 37      0.160352  2 H  s          

 Vector    2  Occ=4.228690D-01  E=-1.249429D-01  Symmetry=a
              MO Center= -3.8D-15,  3.6D-13, -6.7D-15, r^2= 1.8D+00
   Bfn.  Coefficient  Atom+Function         Bfn.  Coefficient  Atom+Function  
  ----- ------------  ---------------      ----- ------------  ---------------
     3      0.421412  1 H  s                 38     -0.421412  2 H  s          
     2      0.212495  1 H  s                 37     -0.212495  2 H  s          
     4      0.197378  1 H  s                 39     -0.197378  2 H  s          

 Vector    3  Occ=0.000000D+00  E= 2.646816D-01  Symmetry=a
              MO Center=  2.5D-16, -3.5D-12,  4.8D-16, r^2= 5.3D+00
   Bfn.  Coefficient  Atom+Function         Bfn.  Coefficient  Atom+Function  
  ----- ------------  ---------------      ----- ------------  ---------------
     3      1.923186  1 H  s                 38      1.923186  2 H  s          
     4     -1.282208  1 H  s                 39     -1.282208  2 H  s          
     9     -0.351279  1 H  py                44      0.351279  2 H  py         
    23     -0.231940  1 H  dyy               58     -0.231940  2 H  dyy        
     2     -0.229212  1 H  s                 37     -0.229212  2 H  s          

 Vector    4  Occ=0.000000D+00  E= 2.747211D-01  Symmetry=a
              MO Center=  7.2D-16,  3.4D-12,  5.6D-16, r^2= 7.0D+00
   Bfn.  Coefficient  Atom+Function         Bfn.  Coefficient  Atom+Function  
  ----- ------------  ---------------      ----- ------------  ---------------
     4     -2.060795  1 H  s                 39      2.060795  2 H  s          
     3      1.914035  1 H  s                 38     -1.914035  2 H  s          
     2     -0.245867  1 H  s                 37      0.245867  2 H  s          
    20     -0.205666  1 H  dxx               25     -0.205666  1 H  dzz        
    55      0.205666  2 H  dxx               60      0.205666  2 H  dzz        

 Vector    5  Occ=0.000000D+00  E= 4.465008D-01  Symmetry=a
              MO Center= -1.3D-16, -3.0D-13,  1.3D-15, r^2= 2.4D+00
   Bfn.  Coefficient  Atom+Function         Bfn.  Coefficient  Atom+Function  
  ----- ------------  ---------------      ----- ------------  ---------------
    10      1.816829  1 H  pz                45      1.816829  2 H  pz         
    13     -0.980931  1 H  pz                48     -0.980931  2 H  pz         
    28     -0.733948  1 H  fxxz              35     -0.733948  1 H  fzzz       
    63     -0.733948  2 H  fxxz              70     -0.733948  2 H  fzzz       
    33     -0.728429  1 H  fyyz              68     -0.728429  2 H  fyyz       

 Vector    6  Occ=0.000000D+00  E= 4.465008D-01  Symmetry=a
              MO Center= -8.9D-16, -3.1D-13,  3.3D-16, r^2= 2.4D+00
   Bfn.  Coefficient  Atom+Function         Bfn.  Coefficient  Atom+Function  
  ----- ------------  ---------------      ----- ------------  ---------------
     8      1.816829  1 H  px                43      1.816829  2 H  px         
    11     -0.980931  1 H  px                46     -0.980931  2 H  px         
    26     -0.733948  1 H  fxxx              31     -0.733948  1 H  fxzz       
    61     -0.733948  2 H  fxxx              66     -0.733948  2 H  fxzz       
    29     -0.728429  1 H  fxyy              64     -0.728429  2 H  fxyy       

 Vector    7  Occ=0.000000D+00  E= 5.140417D-01  Symmetry=a
              MO Center=  1.9D-15, -6.5D-13, -1.1D-15, r^2= 2.6D+00
   Bfn.  Coefficient  Atom+Function         Bfn.  Coefficient  Atom+Function  
  ----- ------------  ---------------      ----- ------------  ---------------
     9      1.663231  1 H  py                44     -1.663231  2 H  py         
    12     -0.913821  1 H  py                47      0.913821  2 H  py         
    27     -0.676858  1 H  fxxy              34     -0.676858  1 H  fyzz       
    62      0.676858  2 H  fxxy              69      0.676858  2 H  fyzz       
    32     -0.663639  1 H  fyyy              67      0.663639  2 H  fyyy       

 Vector    8  Occ=0.000000D+00  E= 6.011675D-01  Symmetry=a
              MO Center=  2.3D-16,  2.9D-13,  6.0D-15, r^2= 2.9D+00
   Bfn.  Coefficient  Atom+Function         Bfn.  Coefficient  Atom+Function  
  ----- ------------  ---------------      ----- ------------  ---------------
    10      2.021975  1 H  pz                45     -2.021975  2 H  pz         
    13     -1.175068  1 H  pz                48      1.175068  2 H  pz         
    33     -0.812260  1 H  fyyz              68      0.812260  2 H  fyyz       
    28     -0.807093  1 H  fxxz              35     -0.807093  1 H  fzzz       
    63      0.807093  2 H  fxxz              70      0.807093  2 H  fzzz       

 Vector    9  Occ=0.000000D+00  E= 6.011675D-01  Symmetry=a
              MO Center=  3.3D-15,  3.0D-13,  9.2D-17, r^2= 2.9D+00
   Bfn.  Coefficient  Atom+Function         Bfn.  Coefficient  Atom+Function  
  ----- ------------  ---------------      ----- ------------  ---------------
     8      2.021975  1 H  px                43     -2.021975  2 H  px         
    11     -1.175068  1 H  px                46      1.175068  2 H  px         
    29     -0.812260  1 H  fxyy              64      0.812260  2 H  fxyy       
    26     -0.807093  1 H  fxxx              31     -0.807093  1 H  fxzz       
    61      0.807093  2 H  fxxx              66      0.807093  2 H  fxzz       

 Vector   10  Occ=0.000000D+00  E= 8.490944D-01  Symmetry=a
              MO Center=  1.6D-16,  4.6D-13, -1.7D-16, r^2= 3.8D+00
   Bfn.  Coefficient  Atom+Function         Bfn.  Coefficient  Atom+Function  
  ----- ------------  ---------------      ----- ------------  ---------------
     9      2.586761  1 H  py                44      2.586761  2 H  py         
    12     -1.796831  1 H  py                47     -1.796831  2 H  py         
    32     -1.022929  1 H  fyyy              67     -1.022929  2 H  fyyy       
     4     -1.007857  1 H  s                 39      1.007857  2 H  s          
    27     -0.998865  1 H  fxxy              34     -0.998865  1 H  fyzz       

 Vector   11  Occ=0.000000D+00  E= 1.165506D+00  Symmetry=a
              MO Center= -5.6D-16, -1.1D-13, -3.1D-16, r^2= 3.1D+00
   Bfn.  Coefficient  Atom+Function         Bfn.  Coefficient  Atom+Function  
  ----- ------------  ---------------      ----- ------------  ---------------
     3      3.608673  1 H  s                 38      3.608673  2 H  s          
     2     -1.418248  1 H  s                 37     -1.418248  2 H  s          
     4     -0.946999  1 H  s                 39     -0.946999  2 H  s          
    23     -0.727013  1 H  dyy               58     -0.727013  2 H  dyy        
    20     -0.666477  1 H  dxx               25     -0.666477  1 H  dzz        

 Vector   12  Occ=0.000000D+00  E= 1.211907D+00  Symmetry=a
              MO Center= -1.8D-15, -1.3D-14, -1.5D-15, r^2= 3.0D+00
   Bfn.  Coefficient  Atom+Function         Bfn.  Coefficient  Atom+Function  
  ----- ------------  ---------------      ----- ------------  ---------------
     3      4.251177  1 H  s                 38     -4.251177  2 H  s          
     2     -1.598367  1 H  s                 37      1.598367  2 H  s          
     4     -1.197561  1 H  s                 39      1.197561  2 H  s          
     9     -0.807210  1 H  py                44     -0.807210  2 H  py         
    20     -0.749644  1 H  dxx               25     -0.749644  1 H  dzz        


 Wrote Lagrangian and 1- and 2-particle density matrices to ./H2.mcpdm


     Multipole analysis of the density
     ---------------------------------

     L   x y z        total        nuclear
     -   - - -        -----        -------
     0   0 0 0     -0.000000      2.000000

     1   1 0 0      0.000000      0.000000
     1   0 1 0      0.000000      0.000000
     1   0 0 1      0.000000      0.000000

     2   2 0 0     -2.086598      0.000000
     2   1 1 0      0.000000      0.000000
     2   1 0 1     -0.000000      0.000000
     2   0 2 0     -1.408303      6.845000
     2   0 1 1      0.000000      0.000000
     2   0 0 2     -2.086598      0.000000


  Mulliken analysis of the total density
  --------------------------------------

    Atom       Charge   Shell Charges
 -----------   ------   -------------------------------------------------------
    1 H    1     1.00   0.04  0.21  0.47  0.27  0.00 -0.00  0.00  0.00  0.00  0.00
    2 H    1     1.00   0.04  0.21  0.47  0.27  0.00 -0.00  0.00  0.00  0.00  0.00

    Mulliken analysis of the active space density
    ---------------------------------------------

    Atom       Charge   Shell Charges
 -----------   ------   -------------------------------------------------------
    1 H    1     1.00   0.04  0.21  0.47  0.27  0.00 -0.00  0.00  0.00  0.00  0.00
    2 H    1     1.00   0.04  0.21  0.47  0.27  0.00 -0.00  0.00  0.00  0.00  0.00

 Parallel integral file used      19 records with       0 large values


 Task  times  cpu:        0.6s     wall:        0.7s


                                NWChem Input Module
                                -------------------


                                 NWChem SCF Module
                                 -----------------


                                        H2



  ao basis        = "ao basis"
  functions       =    70
  atoms           =     2
  closed shells   =     1
  open shells     =     0
  charge          =   0.00
  wavefunction    = RHF 
  input vectors   = ./H2.mos
  output vectors  = ./H2-3.70.mos
  use symmetry    = F
  symmetry adapt  = F


 Summary of "ao basis" -> "ao basis" (cartesian)
 ------------------------------------------------------------------------------
       Tag                 Description            Shells   Functions and Types
 ---------------- ------------------------------  ------  ---------------------
 H                          cc-pVQZ                 10       35   4s3p2d1f



 Forming initial guess at       0.7s


 Loading old vectors from job with title :

H2


 Starting SCF solution at       0.7s



 ----------------------------------------------
         Quadratically convergent ROHF

 Convergence threshold     :          1.000E-04
 Maximum no. of iterations :           30
 Final Fock-matrix accuracy:          1.000E-07
 ----------------------------------------------


 Integral file          = ./H2.aoints.0
 Record size in doubles =  65536        No. of integs per rec  =  43688
 Max. records in memory =     99        Max. records in file   = 280289
 No. of bits per label  =      8        No. of bits per value  =     64


 #quartets = 2.156D+04 #integrals = 7.319D+05 #direct =  0.0% #cached =100.0%



       Final RHF  results 
       ------------------ 

         Total SCF energy =     -0.921883262122
      One-electron energy =     -1.630640462610
      Two-electron energy =      0.438486930218
 Nuclear repulsion energy =      0.270270270270

        Time for solution =      0.0s


             Final eigenvalues
             -----------------

              1      
    1   -0.3745
    2   -0.1249
    3    0.2647
    4    0.2747
    5    0.4465
    6    0.4465
    7    0.5140
    8    0.6012
    9    0.6012
   10    0.8491
   11    1.1655

                       ROHF Final Molecular Orbital Analysis
                       -------------------------------------

 Vector    1  Occ=2.000000D+00  E=-3.744852D-01
              MO Center=  2.9D-17, -3.4D-15, -2.1D-16, r^2= 1.7D+00
   Bfn.  Coefficient  Atom+Function         Bfn.  Coefficient  Atom+Function  
  ----- ------------  ---------------      ----- ------------  ---------------
     3      0.303216  1 H  s                 38      0.303216  2 H  s          
     4      0.198284  1 H  s                 39      0.198284  2 H  s          
     2      0.160352  1 H  s                 37      0.160352  2 H  s          

 Vector    2  Occ=0.000000D+00  E=-1.249429D-01
              MO Center= -3.8D-15,  3.6D-13, -6.7D-15, r^2= 1.8D+00
   Bfn.  Coefficient  Atom+Function         Bfn.  Coefficient  Atom+Function  
  ----- ------------  ---------------      ----- ------------  ---------------
     3      0.421412  1 H  s                 38     -0.421412  2 H  s          
     2      0.212495  1 H  s                 37     -0.212495  2 H  s          
     4      0.197378  1 H  s                 39     -0.197378  2 H  s          

 Vector    3  Occ=0.000000D+00  E= 2.646816D-01
              MO Center=  2.5D-16, -3.5D-12,  4.8D-16, r^2= 5.3D+00
   Bfn.  Coefficient  Atom+Function         Bfn.  Coefficient  Atom+Function  
  ----- ------------  ---------------      ----- ------------  ---------------
     3      1.923186  1 H  s                 38      1.923186  2 H  s          
     4     -1.282208  1 H  s                 39     -1.282208  2 H  s          
     9     -0.351279  1 H  py                44      0.351279  2 H  py         
    23     -0.231940  1 H  dyy               58     -0.231940  2 H  dyy        
     2     -0.229212  1 H  s                 37     -0.229212  2 H  s          

 Vector    4  Occ=0.000000D+00  E= 2.747211D-01
              MO Center=  7.2D-16,  3.4D-12,  5.6D-16, r^2= 7.0D+00
   Bfn.  Coefficient  Atom+Function         Bfn.  Coefficient  Atom+Function  
  ----- ------------  ---------------      ----- ------------  ---------------
     4     -2.060795  1 H  s                 39      2.060795  2 H  s          
     3      1.914035  1 H  s                 38     -1.914035  2 H  s          
     2     -0.245867  1 H  s                 37      0.245867  2 H  s          
    20     -0.205666  1 H  dxx               25     -0.205666  1 H  dzz        
    55      0.205666  2 H  dxx               60      0.205666  2 H  dzz        

 Vector    5  Occ=0.000000D+00  E= 4.465008D-01
              MO Center= -1.3D-16, -3.0D-13,  1.3D-15, r^2= 2.4D+00
   Bfn.  Coefficient  Atom+Function         Bfn.  Coefficient  Atom+Function  
  ----- ------------  ---------------      ----- ------------  ---------------
    10      1.816829  1 H  pz                45      1.816829  2 H  pz         
    13     -0.980931  1 H  pz                48     -0.980931  2 H  pz         
    28     -0.733948  1 H  fxxz              35     -0.733948  1 H  fzzz       
    63     -0.733948  2 H  fxxz              70     -0.733948  2 H  fzzz       
    33     -0.728429  1 H  fyyz              68     -0.728429  2 H  fyyz       

 Vector    6  Occ=0.000000D+00  E= 4.465008D-01
              MO Center= -8.9D-16, -3.1D-13,  3.3D-16, r^2= 2.4D+00
   Bfn.  Coefficient  Atom+Function         Bfn.  Coefficient  Atom+Function  
  ----- ------------  ---------------      ----- ------------  ---------------
     8      1.816829  1 H  px                43      1.816829  2 H  px         
    11     -0.980931  1 H  px                46     -0.980931  2 H  px         
    26     -0.733948  1 H  fxxx              31     -0.733948  1 H  fxzz       
    61     -0.733948  2 H  fxxx              66     -0.733948  2 H  fxzz       
    29     -0.728429  1 H  fxyy              64     -0.728429  2 H  fxyy       

 Vector    7  Occ=0.000000D+00  E= 5.140417D-01
              MO Center=  1.9D-15, -6.5D-13, -1.1D-15, r^2= 2.6D+00
   Bfn.  Coefficient  Atom+Function         Bfn.  Coefficient  Atom+Function  
  ----- ------------  ---------------      ----- ------------  ---------------
     9      1.663231  1 H  py                44     -1.663231  2 H  py         
    12     -0.913821  1 H  py                47      0.913821  2 H  py         
    27     -0.676858  1 H  fxxy              34     -0.676858  1 H  fyzz       
    62      0.676858  2 H  fxxy              69      0.676858  2 H  fyzz       
    32     -0.663639  1 H  fyyy              67      0.663639  2 H  fyyy       

 Vector    8  Occ=0.000000D+00  E= 6.011675D-01
              MO Center=  2.3D-16,  2.9D-13,  6.0D-15, r^2= 2.9D+00
   Bfn.  Coefficient  Atom+Function         Bfn.  Coefficient  Atom+Function  
  ----- ------------  ---------------      ----- ------------  ---------------
    10      2.021975  1 H  pz                45     -2.021975  2 H  pz         
    13     -1.175068  1 H  pz                48      1.175068  2 H  pz         
    33     -0.812260  1 H  fyyz              68      0.812260  2 H  fyyz       
    28     -0.807093  1 H  fxxz              35     -0.807093  1 H  fzzz       
    63      0.807093  2 H  fxxz              70      0.807093  2 H  fzzz       

 Vector    9  Occ=0.000000D+00  E= 6.011675D-01
              MO Center=  3.3D-15,  3.0D-13,  9.2D-17, r^2= 2.9D+00
   Bfn.  Coefficient  Atom+Function         Bfn.  Coefficient  Atom+Function  
  ----- ------------  ---------------      ----- ------------  ---------------
     8      2.021975  1 H  px                43     -2.021975  2 H  px         
    11     -1.175068  1 H  px                46      1.175068  2 H  px         
    29     -0.812260  1 H  fxyy              64      0.812260  2 H  fxyy       
    26     -0.807093  1 H  fxxx              31     -0.807093  1 H  fxzz       
    61      0.807093  2 H  fxxx              66      0.807093  2 H  fxzz       

 Vector   10  Occ=0.000000D+00  E= 8.490944D-01
              MO Center=  1.6D-16,  4.5D-13, -1.7D-16, r^2= 3.8D+00
   Bfn.  Coefficient  Atom+Function         Bfn.  Coefficient  Atom+Function  
  ----- ------------  ---------------      ----- ------------  ---------------
     9      2.586761  1 H  py                44      2.586761  2 H  py         
    12     -1.796831  1 H  py                47     -1.796831  2 H  py         
    32     -1.022929  1 H  fyyy              67     -1.022929  2 H  fyyy       
     4     -1.007857  1 H  s                 39      1.007857  2 H  s          
    27     -0.998865  1 H  fxxy              34     -0.998865  1 H  fyzz       

 Vector   11  Occ=0.000000D+00  E= 1.165506D+00
              MO Center= -5.6D-16, -1.2D-13, -3.1D-16, r^2= 3.1D+00
   Bfn.  Coefficient  Atom+Function         Bfn.  Coefficient  Atom+Function  
  ----- ------------  ---------------      ----- ------------  ---------------
     3      3.608673  1 H  s                 38      3.608673  2 H  s          
     2     -1.418248  1 H  s                 37     -1.418248  2 H  s          
     4     -0.946999  1 H  s                 39     -0.946999  2 H  s          
    23     -0.727013  1 H  dyy               58     -0.727013  2 H  dyy        
    20     -0.666477  1 H  dxx               25     -0.666477  1 H  dzz        


 center of mass
 --------------
 x =   0.00000000 y =   0.00000000 z =   0.00000000

 moments of inertia (a.u.)
 ------------------
           6.898562125000           0.000000000000           0.000000000000
           0.000000000000           0.000000000000           0.000000000000
           0.000000000000           0.000000000000           6.898562125000

  Mulliken analysis of the total density
  --------------------------------------

    Atom       Charge   Shell Charges
 -----------   ------   -------------------------------------------------------
    1 H    1     1.00   0.04  0.19  0.45  0.31  0.00 -0.00  0.00  0.00  0.00  0.00
    2 H    1     1.00   0.04  0.19  0.45  0.31  0.00 -0.00  0.00  0.00  0.00  0.00

       Multipole analysis of the density wrt the origin
       ------------------------------------------------

     L   x y z        total         open         nuclear
     -   - - -        -----         ----         -------
     0   0 0 0     -0.000000      0.000000      2.000000

     1   1 0 0     -0.000000      0.000000      0.000000
     1   0 1 0      0.000000      0.000000      0.000000
     1   0 0 1      0.000000      0.000000      0.000000

     2   2 0 0     -2.210484      0.000000      0.000000
     2   1 1 0      0.000000      0.000000      0.000000
     2   1 0 1      0.000000      0.000000      0.000000
     2   0 2 0     -0.977548      0.000000      6.845000
     2   0 1 1     -0.000000      0.000000      0.000000
     2   0 0 2     -2.210484      0.000000      0.000000


 Parallel integral file used      17 records with       0 large values

 ------------------------------------
     Number of active orbitals      2
     Number of active alpha electrons      1
     Number of active beta electrons       1
 ------------------------------------
                   NWChem Extensible Many-Electron Theory Module
                   ---------------------------------------------

              ======================================================
                   This portion of the program was automatically
                  generated by a Tensor Contraction Engine (TCE).
                  The development of this portion of the program
                 and TCE was supported by US Department of Energy,
                Office of Science, Office of Basic Energy Science.
                      TCE is a product of Battelle and PNNL.
              Please cite: S.Hirata, J.Phys.Chem.A 107, 9887 (2003).
              ======================================================

                                        H2


            General Information
            -------------------
      Number of processors :     1
         Wavefunction type : Restricted Hartree-Fock
          No. of electrons :     2
           Alpha electrons :     1
            Beta electrons :     1
           No. of orbitals :   140
            Alpha orbitals :    70
             Beta orbitals :    70
        Alpha frozen cores :     0
         Beta frozen cores :     0
     Alpha frozen virtuals :    68
      Beta frozen virtuals :    68
         Spin multiplicity : singlet 
    Number of AO functions :    70
       Number of AO shells :    20
        Use of symmetry is : off
      Symmetry adaption is : off
         Schwarz screening : 0.10D-09

          Correlation Information
          -----------------------
          Calculation type : Coupled-cluster singles & doubles                           
   Perturbative correction : none                                                        
            Max iterations :      300
        Residual threshold : 0.10D-06
     T(0) DIIS level shift : 0.20D+00
     L(0) DIIS level shift : 0.00D+00
     T(1) DIIS level shift : 0.00D+00
     L(1) DIIS level shift : 0.00D+00
     T(R) DIIS level shift : 0.00D+00
     T(I) DIIS level shift : 0.00D+00
   CC-T/L Amplitude update : 20-th order DIIS
                I/O scheme : Global Array Library
        L-threshold :  0.10D-06
        EOM-threshold :  0.10D-06
 no EOMCCSD initial starts read in
 TCE RESTART OPTIONS
 READ_INT:   F
 WRITE_INT:  F
 READ_TA:    F
 WRITE_TA:   F
 READ_XA:    F
 WRITE_XA:   F
 READ_IN3:   F
 WRITE_IN3:  F
 SLICE:      F
 D4D5:       F
 quantumc:   T
 qrotation:  F
 pwtce:      F
 qducc:      F
 nacto:                         0
 nrotv:                         0
 nrot:                          0

            Memory Information
            ------------------
          Available GA space size is    1610607836 doubles
          Available MA space size is    1610610644 doubles

 Maximum block size supplied by input
 Maximum block size         1 doubles

 tile_dim =      1

 Block   Spin    Irrep     Size     Offset   Alpha
 -------------------------------------------------
   1    alpha     a      1 doubles       0       1
   2    beta      a      1 doubles       1       1
   3    alpha     a      1 doubles       2       3
   4    beta      a      1 doubles       3       3

 Global array virtual files algorithm will be used

 Parallel file system coherency ......... OK

 Integral file          = ./H2.aoints.0
 Record size in doubles =  65536        No. of integs per rec  =  43688
 Max. records in memory =     99        Max. records in file   = 280289
 No. of bits per label  =      8        No. of bits per value  =     64


 #quartets = 2.206D+04 #integrals = 8.258D+05 #direct =  0.0% #cached =100.0%


 Fock matrix recomputed
 1-e file size   =                4
 1-e file name   = ./H2.f1
 Cpu & wall time / sec            0.0            0.0
 4-electron integrals stored in orbital form

 v2    file size   =                6
 4-index algorithm nr.  13 is used
 imaxsize =       30
 imaxsize ichop =        0
 begin_one_electron_integrals
    1    1        -0.8153202313
    2    2        -0.6991904015
 end_one_electron_integrals
 begin_two_electron_integrals
    1    1    1    1        0.4384869304
    2    1    2    1        0.1893454646
    2    2    1    1        0.4492487110
    2    2    2    2        0.4738496952
 end_two_electron_integrals
 enrep_tce =   0.27027027027027023     
  EHF(A)             =        -0.92188326
  EHF(total)         =        -0.92188326
  Shift (HFtot-HFA)  =        -0.00000000
 Cpu & wall time / sec            0.7            0.7
 T1-number-of-tasks                    1

 t1 file size   =                1
 t1 file name   = ./H2.t1
 t1 file handle =       -998
 T2-number-of-boxes                    2

 t2 file size   =                2
 t2 file name   = ./H2.t2
 t2 file handle =       -996
CCSD iterations
 ---------------------------------------------------------
 Iter          Residuum       Correlation     Cpu    Wall 
 ---------------------------------------------------------
NEW TASK SCHEDULING
CCSD_T1_NTS --- OK
CCSD_T2_NTS --- OK
    1   0.0605602630917  -0.0718349264218     0.0     0.0
    2   0.0319974930586  -0.0845887999168     0.0     0.0
    3   0.0162124106733  -0.0913274096551     0.0     0.0
    4   0.0080313855256  -0.0947417117770     0.0     0.0
    5   0.0039330197425  -0.0964331059314     0.0     0.0
    6   0.0019150021061  -0.0972613922315     0.0     0.0
    7   0.0009297985246  -0.0976646879465     0.0     0.0
    8   0.0004508291686  -0.0978605017055     0.0     0.0
    9   0.0002184466570  -0.0979554454506     0.0     0.0
   10   0.0001058128142  -0.0980014498912     0.0     0.0
   11   0.0000512463600  -0.0980237338639     0.0     0.0
   12   0.0000248173149  -0.0980345262475     0.0     0.0
   13   0.0000120179552  -0.0980397527257     0.0     0.0
   14   0.0000058196736  -0.0980422836837     0.0     0.0
   15   0.0000028181424  -0.0980435092956     0.0     0.0
   16   0.0000013646630  -0.0980441027909     0.0     0.0
   17   0.0000006608259  -0.0980443901863     0.0     0.0
   18   0.0000003199987  -0.0980445293549     0.0     0.0
   19   0.0000001549563  -0.0980445967460     0.0     0.0
   20   0.0000000750361  -0.0980446293795     0.0     0.0
 -----------------------------------------------------------------
 Iterations converged
 CCSD correlation energy / hartree =        -0.098044629379515
 CCSD total energy / hartree       =        -1.019927891501514

 Singles contributions

 Doubles contributions
     2a   (alpha)     2a   (beta ) ---     1a   (alpha)     1a   (beta )       -0.5178081745
 Ground state specification:
 exp(T)|Ref>~(1+T)|Ref>
 ------- a(p)+/a(q) strings ----------

 singles norm

 doubles norm

 Reference string
  0.88801216543978878      :(1a)+ (1b)+ |0>

 Singles strings

 Doubles strings
 -0.45981995827816918      :(2a)+ (2b)+ (1b)  (1a)  (1a)+ (1b)+ |0>
 -------------------------------------

 Parallel integral file used      19 records with       0 large values


 Task  times  cpu:        0.9s     wall:        1.0s


                                NWChem Input Module
                                -------------------


 Summary of allocated global arrays
-----------------------------------
  No active global arrays


MA_summarize_allocated_blocks: starting scan ...
MA_summarize_allocated_blocks: scan completed: 0 heap blocks, 0 stack blocks
MA usage statistics:

	allocation statistics:
					      heap	     stack
					      ----	     -----
	current number of blocks	         0	         0
	maximum number of blocks	        18	        42
	current total bytes		         0	         0
	maximum total bytes		  51983048	  61977432
	maximum total K-bytes		     51984	     61978
	maximum total M-bytes		        52	        62


                                     CITATION
                                     --------
                Please cite the following reference when publishing
                           results obtained with NWChem:

          E. Apra, E. J. Bylaska, W. A. de Jong, N. Govind, K. Kowalski,
       T. P. Straatsma, M. Valiev, H. J. J. van Dam, Y. Alexeev, J. Anchell,
       V. Anisimov, F. W. Aquino, R. Atta-Fynn, J. Autschbach, N. P. Bauman,
     J. C. Becca, D. E. Bernholdt, K. Bhaskaran-Nair, S. Bogatko, P. Borowski,
         J. Boschen, J. Brabec, A. Bruner, E. Cauet, Y. Chen, G. N. Chuev,
      C. J. Cramer, J. Daily, M. J. O. Deegan, T. H. Dunning Jr., M. Dupuis,
   K. G. Dyall, G. I. Fann, S. A. Fischer, A. Fonari, H. Fruchtl, L. Gagliardi,
      J. Garza, N. Gawande, S. Ghosh, K. Glaesemann, A. W. Gotz, J. Hammond,
       V. Helms, E. D. Hermes, K. Hirao, S. Hirata, M. Jacquelin, L. Jensen,
   B. G. Johnson, H. Jonsson, R. A. Kendall, M. Klemm, R. Kobayashi, V. Konkov,
      S. Krishnamoorthy, M. Krishnan, Z. Lin, R. D. Lins, R. J. Littlefield,
      A. J. Logsdail, K. Lopata, W. Ma, A. V. Marenich, J. Martin del Campo,
   D. Mejia-Rodriguez, J. E. Moore, J. M. Mullin, T. Nakajima, D. R. Nascimento,
    J. A. Nichols, P. J. Nichols, J. Nieplocha, A. Otero-de-la-Roza, B. Palmer,
    A. Panyala, T. Pirojsirikul, B. Peng, R. Peverati, J. Pittner, L. Pollack,
   R. M. Richard, P. Sadayappan, G. C. Schatz, W. A. Shelton, D. W. Silverstein,
   D. M. A. Smith, T. A. Soares, D. Song, M. Swart, H. L. Taylor, G. S. Thomas,
            V. Tipparaju, D. G. Truhlar, K. Tsemekhman, T. Van Voorhis,
      A. Vazquez-Mayagoitia, P. Verma, O. Villa, A. Vishnu, K. D. Vogiatzis,
        D. Wang, J. H. Weare, M. J. Williamson, T. L. Windus, K. Wolinski,
        A. T. Wong, Q. Wu, C. Yang, Q. Yu, M. Zacharias, Z. Zhang, Y. Zhao,
                                and R. J. Harrison
                        "NWChem: Past, present, and future
                         J. Chem. Phys. 152, 184102 (2020)
                               doi:10.1063/5.0004997

                                      AUTHORS
                                      -------
  E. Apra, E. J. Bylaska, N. Govind, K. Kowalski, M. Valiev, D. Mejia-Rodriguez,
       A. Kunitsa, N. P. Bauman, A. Panyala, W. A. de Jong, T. P. Straatsma,
        H. J. J. van Dam, D. Wang, T. L. Windus, J. Hammond, J. Autschbach,
    K. Bhaskaran-Nair, J. Brabec, K. Lopata, S. A. Fischer, S. Krishnamoorthy,
     M. Jacquelin, W. Ma, M. Klemm, O. Villa, Y. Chen, V. Anisimov, F. Aquino,
    S. Hirata, M. T. Hackler, Eric Hermes, L. Jensen, J. E. Moore, J. C. Becca,
      V. Konjkov, T. Risthaus, M. Malagoli, A. Marenich, A. Otero-de-la-Roza,
        J. Mullin, P. Nichols, R. Peverati, J. Pittner, Y. Zhao, P.-D. Fan,
        A. Fonari, M. J. Williamson, R. J. Harrison, J. R. Rehr, M. Dupuis,
     D. Silverstein, D. M. A. Smith, J. Nieplocha, V. Tipparaju, M. Krishnan,
     B. E. Van Kuiken, A. Vazquez-Mayagoitia, M. Swart, Q. Wu, T. Van Voorhis,
     A. A. Auer, M. Nooijen, L. D. Crosby, E. Brown, G. Cisneros, G. I. Fann,
   H. Fruchtl, J. Garza, K. Hirao, R. A. Kendall, J. A. Nichols, K. Tsemekhman,
    K. Wolinski, J. Anchell, D. E. Bernholdt, P. Borowski, T. Clark, D. Clerc,
   H. Dachsel, M. J. O. Deegan, K. Dyall, D. Elwood, E. Glendening, M. Gutowski,
   A. C. Hess, J. Jaffe, B. G. Johnson, J. Ju, R. Kobayashi, R. Kutteh, Z. Lin,
   R. Littlefield, X. Long, B. Meng, T. Nakajima, S. Niu, L. Pollack, M. Rosing,
   K. Glaesemann, G. Sandrone, M. Stave, H. Taylor, G. Thomas, J. H. van Lenthe,
                               A. T. Wong, Z. Zhang.

 Total times  cpu:        1.5s     wall:        1.7s
