 argument  1 = input.nw
  NWChem w/ OpenMP: maximum threads =    1



============================== echo of input deck ==============================
 echo
 start H2
 title "H2"

 memory total 24 gb

 geometry units bohr
 symmetry c1
        H  0.00000000  0.00000000  0.00000000
        H  0.00000000  2.40  0.00000000
 end

 basis
   * library cc-pVQZ
 end

 mcscf
   active  10
   actelec 2
   multiplicity 1
   maxiter 40
   vectors input H2.mos
   vectors output H2.mos
 end

 task mcscf

 scf
   vectors input H2.mos
   vectors output H2-2.40.mos
   noscf
 end

 tce
   2eorb
   2emet 13
   ccsd
   maxiter 300
 end

 set tce:print_integrals T
 set tce:qorb 10
 set tce:qela 1
 set tce:qelb 1

# set tce:qducc T
# set tce:nactv 1
# set tce:nonhf T
# set tce:ducc_model 6

 set tce:printtol 0.02

 task tce
================================================================================


                                         
                                         


             Northwest Computational Chemistry Package (NWChem) 7.0.1
             --------------------------------------------------------


                    Environmental Molecular Sciences Laboratory
                       Pacific Northwest National Laboratory
                                Richland, WA 99352

                              Copyright (c) 1994-2020
                       Pacific Northwest National Laboratory
                            Battelle Memorial Institute

             NWChem is an open-source computational chemistry package
                        distributed under the terms of the
                      Educational Community License (ECL) 2.0
             A copy of the license is included with this distribution
                              in the LICENSE.TXT file

                                  ACKNOWLEDGMENT
                                  --------------

            This software and its documentation were developed at the
            EMSL at Pacific Northwest National Laboratory, a multiprogram
            national laboratory, operated for the U.S. Department of Energy
            by Battelle under Contract Number DE-AC05-76RL01830. Support
            for this work was provided by the Department of Energy Office
            of Biological and Environmental Research, Office of Basic
            Energy Sciences, and the Office of Advanced Scientific Computing.


           Job information
           ---------------

    hostname        = WE46210
    program         = /home/baum612/code/nwchem/bin/LINUX64/nwchem
    date            = Thu Nov  9 15:53:10 2023

    compiled        = Mon_Nov_06_10:06:57_2023
    source          = /home/baum612/code/nwchem
    nwchem branch   = 7.0.0
    nwchem revision = nwchem_on_git-4191-g39d87d64de
    ga revision     = 5.8.1
    use scalapack   = F
    input           = input.nw
    prefix          = H2.
    data base       = ./H2.db
    status          = startup
    nproc           =        1
    time left       =     -1s



           Memory information
           ------------------

    heap     =  805306362 doubles =   6144.0 Mbytes
    stack    =  805306367 doubles =   6144.0 Mbytes
    global   = 1610612736 doubles =  12288.0 Mbytes (distinct from heap & stack)
    total    = 3221225465 doubles =  24576.0 Mbytes
    verify   = yes
    hardfail = no 


           Directory information
           ---------------------

  0 permanent = .
  0 scratch   = .




                                NWChem Input Module
                                -------------------


                                        H2
                                        --
 Turning off AUTOSYM since
 SYMMETRY directive was detected!


          ------
          auto-z
          ------
     1 autoz failed with cvr_scaling = 1.2 changing to 1.3
     2 autoz failed with cvr_scaling = 1.3 changing to 1.4
     3 autoz failed with cvr_scaling = 1.4 changing to 1.5
     4 autoz failed with cvr_scaling = 1.5 changing to 1.6
  no constraints, skipping    0.0000000000000000     
  no constraints, skipping    0.0000000000000000     


                             Geometry "geometry" -> ""
                             -------------------------

 Output coordinates in a.u. (scale by  1.000000000 to convert to a.u.)

  No.       Tag          Charge          X              Y              Z
 ---- ---------------- ---------- -------------- -------------- --------------
    1 H                    1.0000     0.00000000    -1.20000000     0.00000000
    2 H                    1.0000     0.00000000     1.20000000     0.00000000

      Atomic Mass 
      ----------- 

      H                  1.007825


 Effective nuclear repulsion energy (a.u.)       0.4166666667

            Nuclear Dipole moment (a.u.) 
            ----------------------------
        X                 Y               Z
 ---------------- ---------------- ----------------
     0.0000000000     0.0000000000     0.0000000000



                                Z-matrix (autoz)
                                -------- 

 Units are Angstrom for bonds and degrees for angles

      Type          Name      I     J     K     L     M      Value
      ----------- --------  ----- ----- ----- ----- ----- ----------
    1 Stretch                  1     2                       1.27003


            XYZ format geometry
            -------------------
     2
 geometry
 H                     0.00000000    -0.63501270     0.00000000
 H                     0.00000000     0.63501270     0.00000000



 Summary of "ao basis" -> "" (cartesian)
 ------------------------------------------------------------------------------
       Tag                 Description            Shells   Functions and Types
 ---------------- ------------------------------  ------  ---------------------
 *                          cc-pVQZ                   on all atoms 


                      Basis "ao basis" -> "ao basis" (cartesian)
                      -----
  H (Hydrogen)
  ------------
            Exponent  Coefficients 
       -------------- ---------------------------------------------------------
  1 S  8.26400000E+01  0.002006
  1 S  1.24100000E+01  0.015343
  1 S  2.82400000E+00  0.075579

  2 S  7.97700000E-01  1.000000

  3 S  2.58100000E-01  1.000000

  4 S  8.98900000E-02  1.000000

  5 P  2.29200000E+00  1.000000

  6 P  8.38000000E-01  1.000000

  7 P  2.92000000E-01  1.000000

  8 D  2.06200000E+00  1.000000

  9 D  6.62000000E-01  1.000000

 10 F  1.39700000E+00  1.000000



 Summary of "ao basis" -> "ao basis" (cartesian)
 ------------------------------------------------------------------------------
       Tag                 Description            Shells   Functions and Types
 ---------------- ------------------------------  ------  ---------------------
 H                          cc-pVQZ                 10       35   4s3p2d1f



                            NWChem Direct MCSCF Module
                            --------------------------


                                        H2


     -----------------------------------
       Basis functions:             70
       Inactive shells:              0
       Active shells:               10
       Active electrons:             2
       Symmetry:                    a       
       Multiplicity:                 1
       Orbital rotations:          600
     -----------------------------------

     -----------------------------------
       E2 extrapolation:             F
       Conjugacy:                    T
       Micro CI relax:               T
       Canonical orbitals:           T
       Maximum iterations:          40
       Converge threshold:    1.00E-04
       Conjugacy resets:            20
       Initial levelshift:        0.10
     -----------------------------------

 Loading old vectors from job with title :

H2


   input molecular orbitals = ./H2.mos
  output molecular orbtials = ./H2.mos

       No. of determinants:           100


  Starting Orbital Energies
    -0.499525    -0.037164    -0.003115    -0.002598    -0.002598    -0.000312
    -0.000214    -0.000181    -0.000181    -0.000087     0.447504     0.872709
     1.076107     1.357458     1.357458     1.485885     1.485885     1.935113
     1.935113     2.043735     2.104045     2.104045     2.323444     2.323444
     2.390087     2.829969     2.908936     2.908936     2.952629     3.847970
     4.093282     4.398054     4.398054     4.421969     4.421969     5.070329
     5.655419     5.655419     5.816349     5.816349     5.972063     5.972063
     6.197108     6.197108     6.507201     6.802104     6.802104     8.113111
     8.113111     8.192626     8.192626     8.269446     8.269446     8.373405
     8.373405     8.534169     8.534169     8.669275     9.072896     9.423803
     9.684387     9.684387     9.692863     9.715540     9.824996     9.824996
    10.165350    11.329605    22.694764    24.646812

  Orbital Symmetry Irreps
a    a    a    a    a    a    a    a    a    a    a    a    a    a    a   
a    a    a    a    a    a    a    a    a    a    a    a    a    a    a   
a    a    a    a    a    a    a    a    a    a    a    a    a    a    a   
a    a    a    a    a    a    a    a    a    a    a    a    a    a    a   
a    a    a    a    a    a    a    a    a    a   

 Integral file          = ./H2.aoints.0
 Record size in doubles =  65536        No. of integs per rec  =  43688
 Max. records in memory =     99        Max. records in file   = 280226
 No. of bits per label  =      8        No. of bits per value  =     64


 #quartets = 2.216D+04 #integrals = 8.606D+05 #direct =  0.0% #cached =100.0%




          %%%%% MacroIteration   1 %%%%%


          Number of sigma calls:       15
                       o<<<<< (aa):             0.00
                       o<<<<< (bb):             0.00
                       o<<<<< (ab):             0.01
                       o<<<<< (total)           0.02
                       o<<<<< (aa) ff           0.00
                       o<<<<< (aa) gop          0.00
                       o<<<<< (aa) dot          0.00
                       o<<<<< (ab) str          0.00
                       o<<<<< (ab) gath         0.00
                       o<<<<< (ab) dotab        0.00
                       o<<<<< (ab) scat         0.00
                       o<<<<< (ab) sync         0.00
                       o<<<<< Density           0.00
                       o<<<<< Density one       0.00
                       o<<<<< Density two       0.00
                       o<<<<< Density ab        0.00
                       o<<<<< Spin adapt        0.00
                       o<<<<< Symm adapt        0.00

                       o<<<<< (ab) max sync:      0.00

           >>>| Valence CI:             -1.517392497207
           >>>| MCSCF energy:           -1.100725830540
           >>>| Gradient norm:          0.742722601D-02
     --- Warning:  321 Hessian diagonals < 0.05 ---

                              ----- Line search ------

        step       energy         lsg     num-lsg   num-lsh   lsrat    time
      ------- ---------------- --------- --------- --------- ------- --------
       0.0000      -1.10072583 -5.14D-06  0.00D+00  0.00D+00 0.0D+00      0.4

          Number of sigma calls:       14
                       o<<<<< (aa):             0.00
                       o<<<<< (bb):             0.00
                       o<<<<< (ab):             0.00
                       o<<<<< (total)           0.00
                       o<<<<< (aa) ff           0.00
                       o<<<<< (aa) gop          0.00
                       o<<<<< (aa) dot          0.00
                       o<<<<< (ab) str          0.00
                       o<<<<< (ab) gath         0.00
                       o<<<<< (ab) dotab        0.00
                       o<<<<< (ab) scat         0.00
                       o<<<<< (ab) sync         0.00
                       o<<<<< Density           0.00
                       o<<<<< Density one       0.00
                       o<<<<< Density two       0.00
                       o<<<<< Density ab        0.00
                       o<<<<< Spin adapt        0.00
                       o<<<<< Symm adapt        0.00

                       o<<<<< (ab) max sync:      0.00
       1.0000      -1.10072895 -1.09D-06 -1.09D-06  4.05D-06 2.1D-01      0.6

          Number of sigma calls:       13
                       o<<<<< (aa):             0.00
                       o<<<<< (bb):             0.00
                       o<<<<< (ab):             0.01
                       o<<<<< (total)           0.01
                       o<<<<< (aa) ff           0.00
                       o<<<<< (aa) gop          0.00
                       o<<<<< (aa) dot          0.00
                       o<<<<< (ab) str          0.00
                       o<<<<< (ab) gath         0.00
                       o<<<<< (ab) dotab        0.00
                       o<<<<< (ab) scat         0.00
                       o<<<<< (ab) sync         0.00
                       o<<<<< Density           0.00
                       o<<<<< Density one       0.00
                       o<<<<< Density two       0.00
                       o<<<<< Density ab        0.00
                       o<<<<< Spin adapt        0.00
                       o<<<<< Symm adapt        0.00

                       o<<<<< (ab) max sync:      0.00
       1.2683      -1.10072909  1.89D-09  1.83D-09  4.06D-06 3.7D-04      0.7
     --- Orbitals canonicalized ---



          %%%%% MacroIteration   2 %%%%%


          Number of sigma calls:       15
                       o<<<<< (aa):             0.00
                       o<<<<< (bb):             0.00
                       o<<<<< (ab):             0.02
                       o<<<<< (total)           0.02
                       o<<<<< (aa) ff           0.00
                       o<<<<< (aa) gop          0.00
                       o<<<<< (aa) dot          0.00
                       o<<<<< (ab) str          0.00
                       o<<<<< (ab) gath         0.00
                       o<<<<< (ab) dotab        0.00
                       o<<<<< (ab) scat         0.00
                       o<<<<< (ab) sync         0.00
                       o<<<<< Density           0.00
                       o<<<<< Density one       0.00
                       o<<<<< Density two       0.00
                       o<<<<< Density ab        0.00
                       o<<<<< Spin adapt        0.00
                       o<<<<< Symm adapt        0.00

                       o<<<<< (ab) max sync:      0.00

           >>>| Valence CI:             -1.517395758440
           >>>| MCSCF energy:           -1.100729091774
           >>>| Gradient norm:          0.191585883D-02
     --- Warning:  321 Hessian diagonals < 0.05 ---
     --- Conjugacy reset ---

                              ----- Line search ------

        step       energy         lsg     num-lsg   num-lsh   lsrat    time
      ------- ---------------- --------- --------- --------- ------- --------
       0.0000      -1.10072909 -2.95D-07  0.00D+00  0.00D+00 0.0D+00      0.9

          Number of sigma calls:       12
                       o<<<<< (aa):             0.00
                       o<<<<< (bb):             0.00
                       o<<<<< (ab):             0.01
                       o<<<<< (total)           0.01
                       o<<<<< (aa) ff           0.00
                       o<<<<< (aa) gop          0.00
                       o<<<<< (aa) dot          0.00
                       o<<<<< (ab) str          0.00
                       o<<<<< (ab) gath         0.00
                       o<<<<< (ab) dotab        0.00
                       o<<<<< (ab) scat         0.00
                       o<<<<< (ab) sync         0.00
                       o<<<<< Density           0.00
                       o<<<<< Density one       0.00
                       o<<<<< Density two       0.00
                       o<<<<< Density ab        0.00
                       o<<<<< Spin adapt        0.00
                       o<<<<< Symm adapt        0.00

                       o<<<<< (ab) max sync:      0.00
       1.0000      -1.10072929 -9.57D-08 -9.57D-08  1.99D-07 3.2D-01      1.0

          Number of sigma calls:       11
                       o<<<<< (aa):             0.00
                       o<<<<< (bb):             0.00
                       o<<<<< (ab):             0.01
                       o<<<<< (total)           0.01
                       o<<<<< (aa) ff           0.00
                       o<<<<< (aa) gop          0.00
                       o<<<<< (aa) dot          0.00
                       o<<<<< (ab) str          0.00
                       o<<<<< (ab) gath         0.00
                       o<<<<< (ab) dotab        0.00
                       o<<<<< (ab) scat         0.00
                       o<<<<< (ab) sync         0.00
                       o<<<<< Density           0.00
                       o<<<<< Density one       0.00
                       o<<<<< Density two       0.00
                       o<<<<< Density ab        0.00
                       o<<<<< Spin adapt        0.00
                       o<<<<< Symm adapt        0.00

                       o<<<<< (ab) max sync:      0.00
       1.4796      -1.10072931  5.88D-11  5.61D-11  2.00D-07 2.0D-04      1.2



          %%%%% MacroIteration   3 %%%%%


          Number of sigma calls:        1
                       o<<<<< (aa):             0.00
                       o<<<<< (bb):             0.00
                       o<<<<< (ab):             0.00
                       o<<<<< (total)           0.00
                       o<<<<< (aa) ff           0.00
                       o<<<<< (aa) gop          0.00
                       o<<<<< (aa) dot          0.00
                       o<<<<< (ab) str          0.00
                       o<<<<< (ab) gath         0.00
                       o<<<<< (ab) dotab        0.00
                       o<<<<< (ab) scat         0.00
                       o<<<<< (ab) sync         0.00
                       o<<<<< Density           0.00
                       o<<<<< Density one       0.00
                       o<<<<< Density two       0.00
                       o<<<<< Density ab        0.00
                       o<<<<< Spin adapt        0.00
                       o<<<<< Symm adapt        0.00

                       o<<<<< (ab) max sync:      0.00

           >>>| Valence CI:             -1.517395976808
           >>>| MCSCF energy:           -1.100729310142
           >>>| Gradient norm:          0.832004997D-03
     --- Warning:  321 Hessian diagonals < 0.05 ---

                              ----- Line search ------

        step       energy         lsg     num-lsg   num-lsh   lsrat    time
      ------- ---------------- --------- --------- --------- ------- --------
       0.0000      -1.10072931 -5.58D-08  0.00D+00  0.00D+00 0.0D+00      1.2

          Number of sigma calls:       11
                       o<<<<< (aa):             0.00
                       o<<<<< (bb):             0.00
                       o<<<<< (ab):             0.00
                       o<<<<< (total)           0.00
                       o<<<<< (aa) ff           0.00
                       o<<<<< (aa) gop          0.00
                       o<<<<< (aa) dot          0.00
                       o<<<<< (ab) str          0.00
                       o<<<<< (ab) gath         0.00
                       o<<<<< (ab) dotab        0.00
                       o<<<<< (ab) scat         0.00
                       o<<<<< (ab) sync         0.00
                       o<<<<< Density           0.00
                       o<<<<< Density one       0.00
                       o<<<<< Density two       0.00
                       o<<<<< Density ab        0.00
                       o<<<<< Spin adapt        0.00
                       o<<<<< Symm adapt        0.00

                       o<<<<< (ab) max sync:      0.00
       1.0000      -1.10072935 -2.18D-08 -2.18D-08  3.41D-08 3.9D-01      1.4

          Number of sigma calls:       10
                       o<<<<< (aa):             0.00
                       o<<<<< (bb):             0.00
                       o<<<<< (ab):             0.01
                       o<<<<< (total)           0.01
                       o<<<<< (aa) ff           0.00
                       o<<<<< (aa) gop          0.00
                       o<<<<< (aa) dot          0.00
                       o<<<<< (ab) str          0.00
                       o<<<<< (ab) gath         0.00
                       o<<<<< (ab) dotab        0.00
                       o<<<<< (ab) scat         0.00
                       o<<<<< (ab) sync         0.00
                       o<<<<< Density           0.00
                       o<<<<< Density one       0.00
                       o<<<<< Density two       0.00
                       o<<<<< Density ab        0.00
                       o<<<<< Spin adapt        0.00
                       o<<<<< Symm adapt        0.00

                       o<<<<< (ab) max sync:      0.00
       1.6385      -1.10072936  3.89D-12  3.63D-12  3.41D-08 7.0D-05      1.5



          %%%%% MacroIteration   4 %%%%%


          Number of sigma calls:        1
                       o<<<<< (aa):             0.00
                       o<<<<< (bb):             0.00
                       o<<<<< (ab):             0.00
                       o<<<<< (total)           0.00
                       o<<<<< (aa) ff           0.00
                       o<<<<< (aa) gop          0.00
                       o<<<<< (aa) dot          0.00
                       o<<<<< (ab) str          0.00
                       o<<<<< (ab) gath         0.00
                       o<<<<< (ab) dotab        0.00
                       o<<<<< (ab) scat         0.00
                       o<<<<< (ab) sync         0.00
                       o<<<<< Density           0.00
                       o<<<<< Density one       0.00
                       o<<<<< Density two       0.00
                       o<<<<< Density ab        0.00
                       o<<<<< Spin adapt        0.00
                       o<<<<< Symm adapt        0.00

                       o<<<<< (ab) max sync:      0.00

           >>>| Valence CI:             -1.517396022553
           >>>| MCSCF energy:           -1.100729355886
           >>>| Gradient norm:          0.541423055D-03
     --- Warning:  321 Hessian diagonals < 0.05 ---

                              ----- Line search ------

        step       energy         lsg     num-lsg   num-lsh   lsrat    time
      ------- ---------------- --------- --------- --------- ------- --------
       0.0000      -1.10072936 -2.31D-08  0.00D+00  0.00D+00 0.0D+00      1.7

          Number of sigma calls:       11
                       o<<<<< (aa):             0.00
                       o<<<<< (bb):             0.00
                       o<<<<< (ab):             0.00
                       o<<<<< (total)           0.00
                       o<<<<< (aa) ff           0.00
                       o<<<<< (aa) gop          0.00
                       o<<<<< (aa) dot          0.00
                       o<<<<< (ab) str          0.00
                       o<<<<< (ab) gath         0.00
                       o<<<<< (ab) dotab        0.00
                       o<<<<< (ab) scat         0.00
                       o<<<<< (ab) sync         0.00
                       o<<<<< Density           0.00
                       o<<<<< Density one       0.00
                       o<<<<< Density two       0.00
                       o<<<<< Density ab        0.00
                       o<<<<< Spin adapt        0.00
                       o<<<<< Symm adapt        0.00

                       o<<<<< (ab) max sync:      0.00
       1.0000      -1.10072938 -1.73D-08 -1.73D-08  5.73D-09 7.5D-01      1.8

          Number of sigma calls:       12
                       o<<<<< (aa):             0.00
                       o<<<<< (bb):             0.00
                       o<<<<< (ab):             0.01
                       o<<<<< (total)           0.01
                       o<<<<< (aa) ff           0.00
                       o<<<<< (aa) gop          0.00
                       o<<<<< (aa) dot          0.00
                       o<<<<< (ab) str          0.00
                       o<<<<< (ab) gath         0.00
                       o<<<<< (ab) dotab        0.00
                       o<<<<< (ab) scat         0.00
                       o<<<<< (ab) sync         0.00
                       o<<<<< Density           0.00
                       o<<<<< Density one       0.00
                       o<<<<< Density two       0.00
                       o<<<<< Density ab        0.00
                       o<<<<< Spin adapt        0.00
                       o<<<<< Symm adapt        0.00

                       o<<<<< (ab) max sync:      0.00
       4.0254      -1.10072940  2.31D-11  2.02D-11  5.74D-09 1.0D-03      2.0



          %%%%% MacroIteration   5 %%%%%


          Number of sigma calls:        1
                       o<<<<< (aa):             0.00
                       o<<<<< (bb):             0.00
                       o<<<<< (ab):             0.00
                       o<<<<< (total)           0.00
                       o<<<<< (aa) ff           0.00
                       o<<<<< (aa) gop          0.00
                       o<<<<< (aa) dot          0.00
                       o<<<<< (ab) str          0.00
                       o<<<<< (ab) gath         0.00
                       o<<<<< (ab) dotab        0.00
                       o<<<<< (ab) scat         0.00
                       o<<<<< (ab) sync         0.00
                       o<<<<< Density           0.00
                       o<<<<< Density one       0.00
                       o<<<<< Density two       0.00
                       o<<<<< Density ab        0.00
                       o<<<<< Spin adapt        0.00
                       o<<<<< Symm adapt        0.00

                       o<<<<< (ab) max sync:      0.00

           >>>| Valence CI:             -1.517396068938
           >>>| MCSCF energy:           -1.100729402272
           >>>| Gradient norm:          0.231014627D-03
     --- Warning:  321 Hessian diagonals < 0.05 ---

                              ----- Line search ------

        step       energy         lsg     num-lsg   num-lsh   lsrat    time
      ------- ---------------- --------- --------- --------- ------- --------
       0.0000      -1.10072940 -8.95D-08  0.00D+00  0.00D+00 0.0D+00      2.2

          Number of sigma calls:       11
                       o<<<<< (aa):             0.00
                       o<<<<< (bb):             0.00
                       o<<<<< (ab):             0.01
                       o<<<<< (total)           0.01
                       o<<<<< (aa) ff           0.00
                       o<<<<< (aa) gop          0.00
                       o<<<<< (aa) dot          0.00
                       o<<<<< (ab) str          0.00
                       o<<<<< (ab) gath         0.00
                       o<<<<< (ab) dotab        0.00
                       o<<<<< (ab) scat         0.00
                       o<<<<< (ab) sync         0.00
                       o<<<<< Density           0.00
                       o<<<<< Density one       0.00
                       o<<<<< Density two       0.00
                       o<<<<< Density ab        0.00
                       o<<<<< Spin adapt        0.00
                       o<<<<< Symm adapt        0.00

                       o<<<<< (ab) max sync:      0.00
       1.0000      -1.10072947 -4.65D-08 -4.66D-08  4.30D-08 5.2D-01      2.4

          Number of sigma calls:       11
                       o<<<<< (aa):             0.00
                       o<<<<< (bb):             0.00
                       o<<<<< (ab):             0.01
                       o<<<<< (total)           0.01
                       o<<<<< (aa) ff           0.00
                       o<<<<< (aa) gop          0.00
                       o<<<<< (aa) dot          0.00
                       o<<<<< (ab) str          0.00
                       o<<<<< (ab) gath         0.00
                       o<<<<< (ab) dotab        0.00
                       o<<<<< (ab) scat         0.00
                       o<<<<< (ab) sync         0.00
                       o<<<<< Density           0.00
                       o<<<<< Density one       0.00
                       o<<<<< Density two       0.00
                       o<<<<< Density ab        0.00
                       o<<<<< Spin adapt        0.00
                       o<<<<< Symm adapt        0.00

                       o<<<<< (ab) max sync:      0.00
       2.0820      -1.10072950  2.57D-10  2.35D-10  4.32D-08 2.9D-03      2.6



          %%%%% MacroIteration   6 %%%%%


          Number of sigma calls:        1
                       o<<<<< (aa):             0.00
                       o<<<<< (bb):             0.00
                       o<<<<< (ab):             0.00
                       o<<<<< (total)           0.00
                       o<<<<< (aa) ff           0.00
                       o<<<<< (aa) gop          0.00
                       o<<<<< (aa) dot          0.00
                       o<<<<< (ab) str          0.00
                       o<<<<< (ab) gath         0.00
                       o<<<<< (ab) dotab        0.00
                       o<<<<< (ab) scat         0.00
                       o<<<<< (ab) sync         0.00
                       o<<<<< Density           0.00
                       o<<<<< Density one       0.00
                       o<<<<< Density two       0.00
                       o<<<<< Density ab        0.00
                       o<<<<< Spin adapt        0.00
                       o<<<<< Symm adapt        0.00

                       o<<<<< (ab) max sync:      0.00

           >>>| Valence CI:             -1.517396162065
           >>>| MCSCF energy:           -1.100729495398
           >>>| Gradient norm:          0.162437734D-03
     --- Warning:  321 Hessian diagonals < 0.05 ---

                              ----- Line search ------

        step       energy         lsg     num-lsg   num-lsh   lsrat    time
      ------- ---------------- --------- --------- --------- ------- --------
       0.0000      -1.10072950 -1.66D-08  0.00D+00  0.00D+00 0.0D+00      2.8

          Number of sigma calls:        9
                       o<<<<< (aa):             0.00
                       o<<<<< (bb):             0.00
                       o<<<<< (ab):             0.01
                       o<<<<< (total)           0.01
                       o<<<<< (aa) ff           0.00
                       o<<<<< (aa) gop          0.00
                       o<<<<< (aa) dot          0.00
                       o<<<<< (ab) str          0.00
                       o<<<<< (ab) gath         0.00
                       o<<<<< (ab) dotab        0.00
                       o<<<<< (ab) scat         0.00
                       o<<<<< (ab) sync         0.00
                       o<<<<< Density           0.00
                       o<<<<< Density one       0.00
                       o<<<<< Density two       0.00
                       o<<<<< Density ab        0.00
                       o<<<<< Spin adapt        0.00
                       o<<<<< Symm adapt        0.00

                       o<<<<< (ab) max sync:      0.00
       1.0000      -1.10072951 -1.12D-08 -1.12D-08  5.41D-09 6.7D-01      3.0

          Number of sigma calls:       10
                       o<<<<< (aa):             0.00
                       o<<<<< (bb):             0.00
                       o<<<<< (ab):             0.00
                       o<<<<< (total)           0.00
                       o<<<<< (aa) ff           0.00
                       o<<<<< (aa) gop          0.00
                       o<<<<< (aa) dot          0.00
                       o<<<<< (ab) str          0.00
                       o<<<<< (ab) gath         0.00
                       o<<<<< (ab) dotab        0.00
                       o<<<<< (ab) scat         0.00
                       o<<<<< (ab) sync         0.00
                       o<<<<< Density           0.00
                       o<<<<< Density one       0.00
                       o<<<<< Density two       0.00
                       o<<<<< Density ab        0.00
                       o<<<<< Spin adapt        0.00
                       o<<<<< Symm adapt        0.00

                       o<<<<< (ab) max sync:      0.00
       3.0625      -1.10072952  2.14D-11  1.91D-11  5.42D-09 1.3D-03      3.2



          %%%%% MacroIteration   7 %%%%%


          Number of sigma calls:        1
                       o<<<<< (aa):             0.00
                       o<<<<< (bb):             0.00
                       o<<<<< (ab):             0.00
                       o<<<<< (total)           0.00
                       o<<<<< (aa) ff           0.00
                       o<<<<< (aa) gop          0.00
                       o<<<<< (aa) dot          0.00
                       o<<<<< (ab) str          0.00
                       o<<<<< (ab) gath         0.00
                       o<<<<< (ab) dotab        0.00
                       o<<<<< (ab) scat         0.00
                       o<<<<< (ab) sync         0.00
                       o<<<<< Density           0.00
                       o<<<<< Density one       0.00
                       o<<<<< Density two       0.00
                       o<<<<< Density ab        0.00
                       o<<<<< Spin adapt        0.00
                       o<<<<< Symm adapt        0.00

                       o<<<<< (ab) max sync:      0.00

           >>>| Valence CI:             -1.517396187407
           >>>| MCSCF energy:           -1.100729520741
           >>>| Gradient norm:          0.344075874D-03
     --- Warning:  321 Hessian diagonals < 0.05 ---

                              ----- Line search ------

        step       energy         lsg     num-lsg   num-lsh   lsrat    time
      ------- ---------------- --------- --------- --------- ------- --------
       0.0000      -1.10072952 -6.95D-09  0.00D+00  0.00D+00 0.0D+00      3.2

          Number of sigma calls:        9
                       o<<<<< (aa):             0.00
                       o<<<<< (bb):             0.00
                       o<<<<< (ab):             0.01
                       o<<<<< (total)           0.01
                       o<<<<< (aa) ff           0.00
                       o<<<<< (aa) gop          0.00
                       o<<<<< (aa) dot          0.00
                       o<<<<< (ab) str          0.00
                       o<<<<< (ab) gath         0.00
                       o<<<<< (ab) dotab        0.00
                       o<<<<< (ab) scat         0.00
                       o<<<<< (ab) sync         0.00
                       o<<<<< Density           0.00
                       o<<<<< Density one       0.00
                       o<<<<< Density two       0.00
                       o<<<<< Density ab        0.00
                       o<<<<< Spin adapt        0.00
                       o<<<<< Symm adapt        0.00

                       o<<<<< (ab) max sync:      0.00
       1.0000      -1.10072953 -3.47D-09 -3.47D-09  3.48D-09 5.0D-01      3.4

          Number of sigma calls:        9
                       o<<<<< (aa):             0.00
                       o<<<<< (bb):             0.00
                       o<<<<< (ab):             0.01
                       o<<<<< (total)           0.01
                       o<<<<< (aa) ff           0.00
                       o<<<<< (aa) gop          0.00
                       o<<<<< (aa) dot          0.00
                       o<<<<< (ab) str          0.00
                       o<<<<< (ab) gath         0.00
                       o<<<<< (ab) dotab        0.00
                       o<<<<< (ab) scat         0.00
                       o<<<<< (ab) sync         0.00
                       o<<<<< Density           0.00
                       o<<<<< Density one       0.00
                       o<<<<< Density two       0.00
                       o<<<<< Density ab        0.00
                       o<<<<< Spin adapt        0.00
                       o<<<<< Symm adapt        0.00

                       o<<<<< (ab) max sync:      0.00
       1.9968      -1.10072953  7.05D-13  6.43D-13  3.48D-09 1.0D-04      3.6



          %%%%% MacroIteration   8 %%%%%


          Number of sigma calls:        1
                       o<<<<< (aa):             0.00
                       o<<<<< (bb):             0.00
                       o<<<<< (ab):             0.00
                       o<<<<< (total)           0.00
                       o<<<<< (aa) ff           0.00
                       o<<<<< (aa) gop          0.00
                       o<<<<< (aa) dot          0.00
                       o<<<<< (ab) str          0.00
                       o<<<<< (ab) gath         0.00
                       o<<<<< (ab) dotab        0.00
                       o<<<<< (ab) scat         0.00
                       o<<<<< (ab) sync         0.00
                       o<<<<< Density           0.00
                       o<<<<< Density one       0.00
                       o<<<<< Density two       0.00
                       o<<<<< Density ab        0.00
                       o<<<<< Spin adapt        0.00
                       o<<<<< Symm adapt        0.00

                       o<<<<< (ab) max sync:      0.00

           >>>| Valence CI:             -1.517396194351
           >>>| MCSCF energy:           -1.100729527684
           >>>| Gradient norm:          0.141028577D-03
     --- Warning:  321 Hessian diagonals < 0.05 ---

                              ----- Line search ------

        step       energy         lsg     num-lsg   num-lsh   lsrat    time
      ------- ---------------- --------- --------- --------- ------- --------
       0.0000      -1.10072953 -3.49D-09  0.00D+00  0.00D+00 0.0D+00      3.7

          Number of sigma calls:        8
                       o<<<<< (aa):             0.00
                       o<<<<< (bb):             0.00
                       o<<<<< (ab):             0.00
                       o<<<<< (total)           0.00
                       o<<<<< (aa) ff           0.00
                       o<<<<< (aa) gop          0.00
                       o<<<<< (aa) dot          0.00
                       o<<<<< (ab) str          0.00
                       o<<<<< (ab) gath         0.00
                       o<<<<< (ab) dotab        0.00
                       o<<<<< (ab) scat         0.00
                       o<<<<< (ab) sync         0.00
                       o<<<<< Density           0.00
                       o<<<<< Density one       0.00
                       o<<<<< Density two       0.00
                       o<<<<< Density ab        0.00
                       o<<<<< Spin adapt        0.00
                       o<<<<< Symm adapt        0.00

                       o<<<<< (ab) max sync:      0.00
       1.0000      -1.10072953 -2.25D-09 -2.25D-09  1.23D-09 6.5D-01      3.8

          Number of sigma calls:        8
                       o<<<<< (aa):             0.00
                       o<<<<< (bb):             0.00
                       o<<<<< (ab):             0.01
                       o<<<<< (total)           0.01
                       o<<<<< (aa) ff           0.00
                       o<<<<< (aa) gop          0.00
                       o<<<<< (aa) dot          0.00
                       o<<<<< (ab) str          0.00
                       o<<<<< (ab) gath         0.00
                       o<<<<< (ab) dotab        0.00
                       o<<<<< (ab) scat         0.00
                       o<<<<< (ab) sync         0.00
                       o<<<<< Density           0.00
                       o<<<<< Density one       0.00
                       o<<<<< Density two       0.00
                       o<<<<< Density ab        0.00
                       o<<<<< Spin adapt        0.00
                       o<<<<< Symm adapt        0.00

                       o<<<<< (ab) max sync:      0.00
       2.8275      -1.10072953 -3.09D-14 -3.28D-14  1.23D-09 8.9D-06      3.9



          %%%%% MacroIteration   9 %%%%%


          Number of sigma calls:        1
                       o<<<<< (aa):             0.00
                       o<<<<< (bb):             0.00
                       o<<<<< (ab):             0.00
                       o<<<<< (total)           0.00
                       o<<<<< (aa) ff           0.00
                       o<<<<< (aa) gop          0.00
                       o<<<<< (aa) dot          0.00
                       o<<<<< (ab) str          0.00
                       o<<<<< (ab) gath         0.00
                       o<<<<< (ab) dotab        0.00
                       o<<<<< (ab) scat         0.00
                       o<<<<< (ab) sync         0.00
                       o<<<<< Density           0.00
                       o<<<<< Density one       0.00
                       o<<<<< Density two       0.00
                       o<<<<< Density ab        0.00
                       o<<<<< Spin adapt        0.00
                       o<<<<< Symm adapt        0.00

                       o<<<<< (ab) max sync:      0.00

           >>>| Valence CI:             -1.517396199280
           >>>| MCSCF energy:           -1.100729532613
           >>>| Gradient norm:          0.420216539D-04




     ==============================
            MCSCF Converged
     ==============================



          Canonical Eigenvalues

              1      
    1   -0.4946
    2   -0.0391
    3   -0.0030
    4   -0.0025
    5   -0.0025
    6   -0.0003
    7   -0.0002
    8   -0.0002
    9   -0.0002
   10   -0.0001
   11    0.4506
   12    0.8697
   13    1.0748
   14    1.3615
   15    1.3615
   16    1.4946
   17    1.4946
   18    1.9383
   19    1.9383
   20    2.0425
   21    2.0878
   22    2.0878
   23    2.3121
   24    2.3121
   25    2.4206
   26    2.8255
   27    2.8867
   28    2.8867
   29    2.9539
   30    3.8707
   31    4.0491
   32    4.4014
   33    4.4014
   34    4.4260
   35    4.4260
   36    5.0187
   37    5.6701
   38    5.6701
   39    5.7741
   40    5.7741
   41    5.9835
   42    5.9835
   43    6.1823
   44    6.1823
   45    6.4201
   46    6.7384
   47    6.7384
   48    8.0474
   49    8.0474
   50    8.1114
   51    8.1114
   52    8.2653
   53    8.2653
   54    8.3578
   55    8.3578
   56    8.5594
   57    8.5594
   58    8.6800
   59    9.0755
   60    9.3605
   61    9.6836
   62    9.6836
   63    9.6996
   64    9.7203
   65    9.8141
   66    9.8141
   67   10.0992
   68   11.1649
   69   22.6858
   70   24.4559


          Converged CI vector

   Index           Coefficient          Config. Occupation
         1          0.97292388          1  1
        12         -0.21590987          2  2
        23         -0.04743581          3  3
        34         -0.04372160          4  4
        45         -0.04372160          5  5

          Number of sigma calls:        1
                       o<<<<< (aa):             0.00
                       o<<<<< (bb):             0.00
                       o<<<<< (ab):             0.00
                       o<<<<< (total)           0.00
                       o<<<<< (aa) ff           0.00
                       o<<<<< (aa) gop          0.00
                       o<<<<< (aa) dot          0.00
                       o<<<<< (ab) str          0.00
                       o<<<<< (ab) gath         0.00
                       o<<<<< (ab) dotab        0.00
                       o<<<<< (ab) scat         0.00
                       o<<<<< (ab) sync         0.00
                       o<<<<< Density           0.00
                       o<<<<< Density one       0.00
                       o<<<<< Density two       0.00
                       o<<<<< Density ab        0.00
                       o<<<<< Spin adapt        0.00
                       o<<<<< Symm adapt        0.00

                       o<<<<< (ab) max sync:      0.00



          Natural orbital occupation numbers

              1      
    1    1.8937
    2    0.0932
    3    0.0045
    4    0.0038
    5    0.0038
    6    0.0003
    7    0.0002
    8    0.0002
    9    0.0002
   10    0.0001


          Number of sigma calls:       15
                       o<<<<< (aa):             0.00
                       o<<<<< (bb):             0.00
                       o<<<<< (ab):             0.02
                       o<<<<< (total)           0.02
                       o<<<<< (aa) ff           0.00
                       o<<<<< (aa) gop          0.00
                       o<<<<< (aa) dot          0.00
                       o<<<<< (ab) str          0.00
                       o<<<<< (ab) gath         0.00
                       o<<<<< (ab) dotab        0.00
                       o<<<<< (ab) scat         0.00
                       o<<<<< (ab) sync         0.00
                       o<<<<< Density           0.00
                       o<<<<< Density one       0.00
                       o<<<<< Density two       0.00
                       o<<<<< Density ab        0.00
                       o<<<<< Spin adapt        0.00
                       o<<<<< Symm adapt        0.00

                       o<<<<< (ab) max sync:      0.00


       Final MCSCF results 
       ------------------- 

       Total MCSCF energy =     -1.100729532613
            Gradient norm =      4.2D-05

    CPU time for solution =      4.2s
   Wall time for solution =      5.6s



                        Analysis of MCSCF natural orbitals
                        ----------------------------------

 Vector    1  Occ=1.893663D+00  E=-4.946073D-01  Symmetry=a
              MO Center= -1.0D-16, -1.5D-13, -4.0D-18, r^2= 1.1D+00
   Bfn.  Coefficient  Atom+Function         Bfn.  Coefficient  Atom+Function  
  ----- ------------  ---------------      ----- ------------  ---------------
     3      0.284387  1 H  s                 38      0.284387  2 H  s          
     2      0.156440  1 H  s                 37      0.156440  2 H  s          
     4      0.154547  1 H  s                 39      0.154547  2 H  s          

 Vector    2  Occ=9.323795D-02  E=-3.906579D-02  Symmetry=a
              MO Center=  1.4D-14, -3.9D-13, -8.9D-15, r^2= 1.1D+00
   Bfn.  Coefficient  Atom+Function         Bfn.  Coefficient  Atom+Function  
  ----- ------------  ---------------      ----- ------------  ---------------
     3      0.504210  1 H  s                 38     -0.504210  2 H  s          
     2      0.305496  1 H  s                 37     -0.305496  2 H  s          

 Vector    3  Occ=4.536177D-03  E=-3.019654D-03  Symmetry=a
              MO Center= -5.6D-14, -1.3D-11,  3.5D-14, r^2= 2.0D+00
   Bfn.  Coefficient  Atom+Function         Bfn.  Coefficient  Atom+Function  
  ----- ------------  ---------------      ----- ------------  ---------------
     9     -0.433183  1 H  py                44      0.433183  2 H  py         
     4      0.429888  1 H  s                 39      0.429888  2 H  s          
     2     -0.358264  1 H  s                 37     -0.358264  2 H  s          

 Vector    4  Occ=3.823156D-03  E=-2.523543D-03  Symmetry=a
              MO Center=  7.3D-14,  9.3D-12, -4.3D-15, r^2= 1.1D+00
   Bfn.  Coefficient  Atom+Function         Bfn.  Coefficient  Atom+Function  
  ----- ------------  ---------------      ----- ------------  ---------------
    11      0.467699  1 H  px                46      0.467699  2 H  px         
    21      0.215902  1 H  dxy               56     -0.215902  2 H  dxy        

 Vector    5  Occ=3.823156D-03  E=-2.523543D-03  Symmetry=a
              MO Center= -3.1D-15,  9.1D-12, -3.7D-14, r^2= 1.1D+00
   Bfn.  Coefficient  Atom+Function         Bfn.  Coefficient  Atom+Function  
  ----- ------------  ---------------      ----- ------------  ---------------
    13      0.467699  1 H  pz                48      0.467699  2 H  pz         
    24      0.215902  1 H  dyz               59     -0.215902  2 H  dyz        

 Vector    6  Occ=3.265014D-04  E=-3.078402D-04  Symmetry=a
              MO Center= -1.3D-14, -9.3D-11,  6.8D-15, r^2= 9.8D-01
   Bfn.  Coefficient  Atom+Function         Bfn.  Coefficient  Atom+Function  
  ----- ------------  ---------------      ----- ------------  ---------------
     2      0.721605  1 H  s                 37      0.721605  2 H  s          
     9     -0.374202  1 H  py                44      0.374202  2 H  py         
    12     -0.297619  1 H  py                47      0.297619  2 H  py         
     4     -0.159658  1 H  s                 39     -0.159658  2 H  s          
     3     -0.150314  1 H  s                 38     -0.150314  2 H  s          

 Vector    7  Occ=1.941781D-04  E=-2.076320D-04  Symmetry=a
              MO Center= -7.1D-13,  7.8D-11,  4.2D-13, r^2= 1.4D+00
   Bfn.  Coefficient  Atom+Function         Bfn.  Coefficient  Atom+Function  
  ----- ------------  ---------------      ----- ------------  ---------------
     2      0.730710  1 H  s                 37     -0.730710  2 H  s          
     3     -0.476427  1 H  s                 38      0.476427  2 H  s          
     4     -0.299076  1 H  s                 39      0.299076  2 H  s          
     9      0.215937  1 H  py                44      0.215937  2 H  py         

 Vector    8  Occ=1.673049D-04  E=-1.765263D-04  Symmetry=a
              MO Center=  2.7D-13, -1.3D-11, -2.3D-14, r^2= 1.0D+00
   Bfn.  Coefficient  Atom+Function         Bfn.  Coefficient  Atom+Function  
  ----- ------------  ---------------      ----- ------------  ---------------
     8      0.778596  1 H  px                43     -0.778596  2 H  px         
    11      0.353608  1 H  px                46     -0.353608  2 H  px         
    21      0.187735  1 H  dxy               56      0.187735  2 H  dxy        

 Vector    9  Occ=1.673049D-04  E=-1.765263D-04  Symmetry=a
              MO Center= -1.1D-14, -1.3D-11, -1.3D-13, r^2= 1.0D+00
   Bfn.  Coefficient  Atom+Function         Bfn.  Coefficient  Atom+Function  
  ----- ------------  ---------------      ----- ------------  ---------------
    10      0.778596  1 H  pz                45     -0.778596  2 H  pz         
    13      0.353608  1 H  pz                48     -0.353608  2 H  pz         
    24      0.187735  1 H  dyz               59      0.187735  2 H  dyz        

 Vector   10  Occ=6.116721D-05  E=-8.368542D-05  Symmetry=a
              MO Center= -2.9D-15,  3.5D-10,  3.5D-16, r^2= 1.8D+00
   Bfn.  Coefficient  Atom+Function         Bfn.  Coefficient  Atom+Function  
  ----- ------------  ---------------      ----- ------------  ---------------
     3      0.630667  1 H  s                 38      0.630667  2 H  s          
    32     -0.542247  1 H  fyyy              67      0.542247  2 H  fyyy       
     4     -0.497462  1 H  s                 39     -0.497462  2 H  s          
     9      0.448987  1 H  py                44     -0.448987  2 H  py         
    12      0.367913  1 H  py                47     -0.367913  2 H  py         

 Vector   11  Occ=0.000000D+00  E= 4.506414D-01  Symmetry=a
              MO Center=  3.7D-13, -1.0D-10, -2.2D-13, r^2= 7.1D+00
   Bfn.  Coefficient  Atom+Function         Bfn.  Coefficient  Atom+Function  
  ----- ------------  ---------------      ----- ------------  ---------------
     4      3.102304  1 H  s                 39     -3.102304  2 H  s          
     3     -2.476788  1 H  s                 38      2.476788  2 H  s          
     9     -0.825741  1 H  py                44     -0.825741  2 H  py         
    12      0.713045  1 H  py                47      0.713045  2 H  py         
     2      0.690591  1 H  s                 37     -0.690591  2 H  s          

 Vector   12  Occ=0.000000D+00  E= 8.697404D-01  Symmetry=a
              MO Center=  8.9D-16,  5.2D-10, -3.2D-16, r^2= 4.8D+00
   Bfn.  Coefficient  Atom+Function         Bfn.  Coefficient  Atom+Function  
  ----- ------------  ---------------      ----- ------------  ---------------
     3      3.392277  1 H  s                 38      3.392277  2 H  s          
     9      2.271230  1 H  py                44     -2.271230  2 H  py         
     4     -1.325887  1 H  s                 39     -1.325887  2 H  s          
     2     -1.056703  1 H  s                 37     -1.056703  2 H  s          
    12     -0.937932  1 H  py                47      0.937932  2 H  py         

 Vector   13  Occ=0.000000D+00  E= 1.074767D+00  Symmetry=a
              MO Center= -1.3D-12, -1.0D-09,  7.9D-13, r^2= 2.8D+00
   Bfn.  Coefficient  Atom+Function         Bfn.  Coefficient  Atom+Function  
  ----- ------------  ---------------      ----- ------------  ---------------
     3      5.798899  1 H  s                 38     -5.798899  2 H  s          
    12      3.677012  1 H  py                47      3.677012  2 H  py         
     9     -2.372760  1 H  py                44     -2.372760  2 H  py         
     2     -1.133196  1 H  s                 37      1.133196  2 H  s          
    32      0.927236  1 H  fyyy              67      0.927236  2 H  fyyy       

 Vector   14  Occ=0.000000D+00  E= 1.361501D+00  Symmetry=a
              MO Center= -1.0D-14, -3.7D-11, -9.5D-13, r^2= 2.9D+00
   Bfn.  Coefficient  Atom+Function         Bfn.  Coefficient  Atom+Function  
  ----- ------------  ---------------      ----- ------------  ---------------
    10      5.693750  1 H  pz                45     -5.693750  2 H  pz         
    28     -2.175134  1 H  fxxz              33     -2.168567  1 H  fyyz       
    35     -2.175134  1 H  fzzz              63      2.175134  2 H  fxxz       
    68      2.168567  2 H  fyyz              70      2.175134  2 H  fzzz       
    13     -1.979227  1 H  pz                48      1.979227  2 H  pz         

 Vector   15  Occ=0.000000D+00  E= 1.361501D+00  Symmetry=a
              MO Center=  1.6D-12, -3.8D-11, -1.7D-14, r^2= 2.9D+00
   Bfn.  Coefficient  Atom+Function         Bfn.  Coefficient  Atom+Function  
  ----- ------------  ---------------      ----- ------------  ---------------
     8      5.693750  1 H  px                43     -5.693750  2 H  px         
    26     -2.175134  1 H  fxxx              29     -2.168567  1 H  fxyy       
    31     -2.175134  1 H  fxzz              61      2.175134  2 H  fxxx       
    64      2.168567  2 H  fxyy              66      2.175134  2 H  fxzz       
    11     -1.979227  1 H  px                46      1.979227  2 H  px         

 Vector   16  Occ=0.000000D+00  E= 1.494632D+00  Symmetry=a
              MO Center= -4.7D-16,  3.3D-11,  6.6D-16, r^2= 2.1D+00
   Bfn.  Coefficient  Atom+Function         Bfn.  Coefficient  Atom+Function  
  ----- ------------  ---------------      ----- ------------  ---------------
    10      5.321027  1 H  pz                45      5.321027  2 H  pz         
    33     -2.126194  1 H  fyyz              68     -2.126194  2 H  fyyz       
    28     -2.072703  1 H  fxxz              35     -2.072703  1 H  fzzz       
    63     -2.072703  2 H  fxxz              70     -2.072703  2 H  fzzz       
     7     -1.408664  1 H  pz                42     -1.408664  2 H  pz         

 Vector   17  Occ=0.000000D+00  E= 1.494632D+00  Symmetry=a
              MO Center= -1.4D-15,  3.4D-11, -2.6D-16, r^2= 2.1D+00
   Bfn.  Coefficient  Atom+Function         Bfn.  Coefficient  Atom+Function  
  ----- ------------  ---------------      ----- ------------  ---------------
     8      5.321027  1 H  px                43      5.321027  2 H  px         
    29     -2.126194  1 H  fxyy              64     -2.126194  2 H  fxyy       
    26     -2.072703  1 H  fxxx              31     -2.072703  1 H  fxzz       
    61     -2.072703  2 H  fxxx              66     -2.072703  2 H  fxzz       
     5     -1.408664  1 H  px                40     -1.408664  2 H  px         

 Vector   18  Occ=0.000000D+00  E= 1.938317D+00  Symmetry=a
              MO Center= -8.7D-16,  1.7D-13,  6.2D-16, r^2= 1.1D+00
   Bfn.  Coefficient  Atom+Function         Bfn.  Coefficient  Atom+Function  
  ----- ------------  ---------------      ----- ------------  ---------------
    22      1.088451  1 H  dxz               57      1.088451  2 H  dxz        
    20     -0.284272  1 H  dxx               25      0.284272  1 H  dzz        
    55     -0.284272  2 H  dxx               60      0.284272  2 H  dzz        
    16     -0.154618  1 H  dxz               51     -0.154618  2 H  dxz        

 Vector   19  Occ=0.000000D+00  E= 1.938317D+00  Symmetry=a
              MO Center= -1.8D-15,  1.7D-13, -2.5D-15, r^2= 1.1D+00
   Bfn.  Coefficient  Atom+Function         Bfn.  Coefficient  Atom+Function  
  ----- ------------  ---------------      ----- ------------  ---------------
    22      0.568544  1 H  dxz               57      0.568544  2 H  dxz        
    20      0.544225  1 H  dxx               25     -0.544225  1 H  dzz        
    55      0.544225  2 H  dxx               60     -0.544225  2 H  dzz        

 Vector   20  Occ=0.000000D+00  E= 2.042532D+00  Symmetry=a
              MO Center= -5.1D-13,  4.9D-10,  3.0D-13, r^2= 3.2D+00
   Bfn.  Coefficient  Atom+Function         Bfn.  Coefficient  Atom+Function  
  ----- ------------  ---------------      ----- ------------  ---------------
     9      4.818013  1 H  py                44      4.818013  2 H  py         
    12     -2.144960  1 H  py                47     -2.144960  2 H  py         
    32     -1.875080  1 H  fyyy              67     -1.875080  2 H  fyyy       
     3      1.819477  1 H  s                 38     -1.819477  2 H  s          
    27     -1.744270  1 H  fxxy              34     -1.744270  1 H  fyzz       


 Wrote Lagrangian and 1- and 2-particle density matrices to ./H2.mcpdm


     Multipole analysis of the density
     ---------------------------------

     L   x y z        total        nuclear
     -   - - -        -----        -------
     0   0 0 0     -0.000000      2.000000

     1   1 0 0     -0.000000      0.000000
     1   0 1 0      0.000000      0.000000
     1   0 0 1      0.000000      0.000000

     2   2 0 0     -1.970587      0.000000
     2   1 1 0      0.000000      0.000000
     2   1 0 1     -0.000000      0.000000
     2   0 2 0     -1.082358      2.880000
     2   0 1 1     -0.000000      0.000000
     2   0 0 2     -1.970587      0.000000


  Mulliken analysis of the total density
  --------------------------------------

    Atom       Charge   Shell Charges
 -----------   ------   -------------------------------------------------------
    1 H    1     1.00   0.04  0.21  0.48  0.24  0.00  0.00  0.01  0.00  0.01  0.00
    2 H    1     1.00   0.04  0.21  0.48  0.24  0.00  0.00  0.01  0.00  0.01  0.00

    Mulliken analysis of the active space density
    ---------------------------------------------

    Atom       Charge   Shell Charges
 -----------   ------   -------------------------------------------------------
    1 H    1     1.00   0.04  0.21  0.48  0.24  0.00  0.00  0.01  0.00  0.01  0.00
    2 H    1     1.00   0.04  0.21  0.48  0.24  0.00  0.00  0.01  0.00  0.01  0.00

 Parallel integral file used      20 records with       0 large values


 Task  times  cpu:        4.2s     wall:        5.6s


                                NWChem Input Module
                                -------------------


                                 NWChem SCF Module
                                 -----------------


                                        H2



  ao basis        = "ao basis"
  functions       =    70
  atoms           =     2
  closed shells   =     1
  open shells     =     0
  charge          =   0.00
  wavefunction    = RHF 
  input vectors   = ./H2.mos
  output vectors  = ./H2-2.40.mos
  use symmetry    = F
  symmetry adapt  = F


 Summary of "ao basis" -> "ao basis" (cartesian)
 ------------------------------------------------------------------------------
       Tag                 Description            Shells   Functions and Types
 ---------------- ------------------------------  ------  ---------------------
 H                          cc-pVQZ                 10       35   4s3p2d1f



 Forming initial guess at       5.6s


 Loading old vectors from job with title :

H2


 Starting SCF solution at       5.6s



 ----------------------------------------------
         Quadratically convergent ROHF

 Convergence threshold     :          1.000E-04
 Maximum no. of iterations :           30
 Final Fock-matrix accuracy:          1.000E-07
 ----------------------------------------------


 Integral file          = ./H2.aoints.0
 Record size in doubles =  65536        No. of integs per rec  =  43688
 Max. records in memory =     99        Max. records in file   = 280277
 No. of bits per label  =      8        No. of bits per value  =     64


 #quartets = 2.215D+04 #integrals = 8.606D+05 #direct =  0.0% #cached =100.0%



       Final RHF  results 
       ------------------ 

         Total SCF energy =     -1.047911572073
      One-electron energy =     -1.990143496450
      Two-electron energy =      0.525565257711
 Nuclear repulsion energy =      0.416666666667

        Time for solution =      0.1s


             Final eigenvalues
             -----------------

              1      
    1   -0.4946
    2   -0.0391
    3   -0.0030
    4   -0.0025
    5   -0.0025
    6   -0.0003
    7   -0.0002
    8   -0.0002
    9   -0.0002
   10   -0.0001
   11    0.4506

                       ROHF Final Molecular Orbital Analysis
                       -------------------------------------

 Vector    1  Occ=2.000000D+00  E=-4.946073D-01
              MO Center= -1.0D-16, -1.5D-13, -4.0D-18, r^2= 1.1D+00
   Bfn.  Coefficient  Atom+Function         Bfn.  Coefficient  Atom+Function  
  ----- ------------  ---------------      ----- ------------  ---------------
     3      0.284387  1 H  s                 38      0.284387  2 H  s          
     2      0.156440  1 H  s                 37      0.156440  2 H  s          
     4      0.154547  1 H  s                 39      0.154547  2 H  s          

 Vector    2  Occ=0.000000D+00  E=-3.906579D-02
              MO Center=  1.4D-14, -3.9D-13, -8.9D-15, r^2= 1.1D+00
   Bfn.  Coefficient  Atom+Function         Bfn.  Coefficient  Atom+Function  
  ----- ------------  ---------------      ----- ------------  ---------------
     3      0.504210  1 H  s                 38     -0.504210  2 H  s          
     2      0.305496  1 H  s                 37     -0.305496  2 H  s          

 Vector    3  Occ=0.000000D+00  E=-3.019654D-03
              MO Center= -5.6D-14, -1.3D-11,  3.5D-14, r^2= 2.0D+00
   Bfn.  Coefficient  Atom+Function         Bfn.  Coefficient  Atom+Function  
  ----- ------------  ---------------      ----- ------------  ---------------
     9     -0.433183  1 H  py                44      0.433183  2 H  py         
     4      0.429888  1 H  s                 39      0.429888  2 H  s          
     2     -0.358264  1 H  s                 37     -0.358264  2 H  s          

 Vector    4  Occ=0.000000D+00  E=-2.523543D-03
              MO Center=  7.3D-14,  9.3D-12, -4.3D-15, r^2= 1.1D+00
   Bfn.  Coefficient  Atom+Function         Bfn.  Coefficient  Atom+Function  
  ----- ------------  ---------------      ----- ------------  ---------------
    11      0.467699  1 H  px                46      0.467699  2 H  px         
    21      0.215902  1 H  dxy               56     -0.215902  2 H  dxy        

 Vector    5  Occ=0.000000D+00  E=-2.523543D-03
              MO Center= -3.1D-15,  9.1D-12, -3.7D-14, r^2= 1.1D+00
   Bfn.  Coefficient  Atom+Function         Bfn.  Coefficient  Atom+Function  
  ----- ------------  ---------------      ----- ------------  ---------------
    13      0.467699  1 H  pz                48      0.467699  2 H  pz         
    24      0.215902  1 H  dyz               59     -0.215902  2 H  dyz        

 Vector    6  Occ=0.000000D+00  E=-3.078402D-04
              MO Center= -1.3D-14, -9.3D-11,  6.8D-15, r^2= 9.8D-01
   Bfn.  Coefficient  Atom+Function         Bfn.  Coefficient  Atom+Function  
  ----- ------------  ---------------      ----- ------------  ---------------
     2      0.721605  1 H  s                 37      0.721605  2 H  s          
     9     -0.374202  1 H  py                44      0.374202  2 H  py         
    12     -0.297619  1 H  py                47      0.297619  2 H  py         
     4     -0.159658  1 H  s                 39     -0.159658  2 H  s          
     3     -0.150314  1 H  s                 38     -0.150314  2 H  s          

 Vector    7  Occ=0.000000D+00  E=-2.076320D-04
              MO Center= -7.1D-13,  7.8D-11,  4.2D-13, r^2= 1.4D+00
   Bfn.  Coefficient  Atom+Function         Bfn.  Coefficient  Atom+Function  
  ----- ------------  ---------------      ----- ------------  ---------------
     2      0.730710  1 H  s                 37     -0.730710  2 H  s          
     3     -0.476427  1 H  s                 38      0.476427  2 H  s          
     4     -0.299076  1 H  s                 39      0.299076  2 H  s          
     9      0.215937  1 H  py                44      0.215937  2 H  py         

 Vector    8  Occ=0.000000D+00  E=-1.765263D-04
              MO Center=  2.7D-13, -1.3D-11, -2.3D-14, r^2= 1.0D+00
   Bfn.  Coefficient  Atom+Function         Bfn.  Coefficient  Atom+Function  
  ----- ------------  ---------------      ----- ------------  ---------------
     8      0.778596  1 H  px                43     -0.778596  2 H  px         
    11      0.353608  1 H  px                46     -0.353608  2 H  px         
    21      0.187735  1 H  dxy               56      0.187735  2 H  dxy        

 Vector    9  Occ=0.000000D+00  E=-1.765263D-04
              MO Center= -1.1D-14, -1.3D-11, -1.3D-13, r^2= 1.0D+00
   Bfn.  Coefficient  Atom+Function         Bfn.  Coefficient  Atom+Function  
  ----- ------------  ---------------      ----- ------------  ---------------
    10      0.778596  1 H  pz                45     -0.778596  2 H  pz         
    13      0.353608  1 H  pz                48     -0.353608  2 H  pz         
    24      0.187735  1 H  dyz               59      0.187735  2 H  dyz        

 Vector   10  Occ=0.000000D+00  E=-8.368542D-05
              MO Center= -2.9D-15,  3.5D-10,  3.5D-16, r^2= 1.8D+00
   Bfn.  Coefficient  Atom+Function         Bfn.  Coefficient  Atom+Function  
  ----- ------------  ---------------      ----- ------------  ---------------
     3      0.630667  1 H  s                 38      0.630667  2 H  s          
    32     -0.542247  1 H  fyyy              67      0.542247  2 H  fyyy       
     4     -0.497462  1 H  s                 39     -0.497462  2 H  s          
     9      0.448987  1 H  py                44     -0.448987  2 H  py         
    12      0.367913  1 H  py                47     -0.367913  2 H  py         

 Vector   11  Occ=0.000000D+00  E= 4.506414D-01
              MO Center=  3.7D-13, -1.0D-10, -2.2D-13, r^2= 7.1D+00
   Bfn.  Coefficient  Atom+Function         Bfn.  Coefficient  Atom+Function  
  ----- ------------  ---------------      ----- ------------  ---------------
     4      3.102304  1 H  s                 39     -3.102304  2 H  s          
     3     -2.476788  1 H  s                 38      2.476788  2 H  s          
     9     -0.825741  1 H  py                44     -0.825741  2 H  py         
    12      0.713045  1 H  py                47      0.713045  2 H  py         
     2      0.690591  1 H  s                 37     -0.690591  2 H  s          

 Vector   12  Occ=0.000000D+00  E= 8.697404D-01
              MO Center=  8.9D-16,  5.2D-10, -3.2D-16, r^2= 4.8D+00
   Bfn.  Coefficient  Atom+Function         Bfn.  Coefficient  Atom+Function  
  ----- ------------  ---------------      ----- ------------  ---------------
     3      3.392277  1 H  s                 38      3.392277  2 H  s          
     9      2.271230  1 H  py                44     -2.271230  2 H  py         
     4     -1.325887  1 H  s                 39     -1.325887  2 H  s          
     2     -1.056703  1 H  s                 37     -1.056703  2 H  s          
    12     -0.937932  1 H  py                47      0.937932  2 H  py         


 center of mass
 --------------
 x =   0.00000000 y =   0.00000000 z =   0.00000000

 moments of inertia (a.u.)
 ------------------
           2.902536000000           0.000000000000           0.000000000000
           0.000000000000           0.000000000000           0.000000000000
           0.000000000000           0.000000000000           2.902536000000

  Mulliken analysis of the total density
  --------------------------------------

    Atom       Charge   Shell Charges
 -----------   ------   -------------------------------------------------------
    1 H    1     1.00   0.04  0.20  0.48  0.25  0.00 -0.00  0.01  0.00  0.01  0.00
    2 H    1     1.00   0.04  0.20  0.48  0.25  0.00 -0.00  0.01  0.00  0.01  0.00

       Multipole analysis of the density wrt the origin
       ------------------------------------------------

     L   x y z        total         open         nuclear
     -   - - -        -----         ----         -------
     0   0 0 0     -0.000000      0.000000      2.000000

     1   1 0 0      0.000000      0.000000      0.000000
     1   0 1 0      0.000000      0.000000      0.000000
     1   0 0 1      0.000000      0.000000      0.000000

     2   2 0 0     -1.998606      0.000000      0.000000
     2   1 1 0     -0.000000      0.000000      0.000000
     2   1 0 1     -0.000000      0.000000      0.000000
     2   0 2 0     -0.998244      0.000000      2.880000
     2   0 1 1      0.000000      0.000000      0.000000
     2   0 0 2     -1.998606      0.000000      0.000000


 Parallel integral file used      20 records with       0 large values

 ------------------------------------
     Number of active orbitals     10
     Number of active alpha electrons      1
     Number of active beta electrons       1
 ------------------------------------
                   NWChem Extensible Many-Electron Theory Module
                   ---------------------------------------------

              ======================================================
                   This portion of the program was automatically
                  generated by a Tensor Contraction Engine (TCE).
                  The development of this portion of the program
                 and TCE was supported by US Department of Energy,
                Office of Science, Office of Basic Energy Science.
                      TCE is a product of Battelle and PNNL.
              Please cite: S.Hirata, J.Phys.Chem.A 107, 9887 (2003).
              ======================================================

                                        H2


            General Information
            -------------------
      Number of processors :     1
         Wavefunction type : Restricted Hartree-Fock
          No. of electrons :     2
           Alpha electrons :     1
            Beta electrons :     1
           No. of orbitals :   140
            Alpha orbitals :    70
             Beta orbitals :    70
        Alpha frozen cores :     0
         Beta frozen cores :     0
     Alpha frozen virtuals :    60
      Beta frozen virtuals :    60
         Spin multiplicity : singlet 
    Number of AO functions :    70
       Number of AO shells :    20
        Use of symmetry is : off
      Symmetry adaption is : off
         Schwarz screening : 0.10D-09

          Correlation Information
          -----------------------
          Calculation type : Coupled-cluster singles & doubles                           
   Perturbative correction : none                                                        
            Max iterations :      300
        Residual threshold : 0.10D-06
     T(0) DIIS level shift : 0.00D+00
     L(0) DIIS level shift : 0.00D+00
     T(1) DIIS level shift : 0.00D+00
     L(1) DIIS level shift : 0.00D+00
     T(R) DIIS level shift : 0.00D+00
     T(I) DIIS level shift : 0.00D+00
   CC-T/L Amplitude update :  5-th order DIIS
                I/O scheme : Global Array Library
        L-threshold :  0.10D-06
        EOM-threshold :  0.10D-06
 no EOMCCSD initial starts read in
 TCE RESTART OPTIONS
 READ_INT:   F
 WRITE_INT:  F
 READ_TA:    F
 WRITE_TA:   F
 READ_XA:    F
 WRITE_XA:   F
 READ_IN3:   F
 WRITE_IN3:  F
 SLICE:      F
 D4D5:       F
 quantumc:   T
 qrotation:  F
 pwtce:      F
 qducc:      F
 nacto:                         0
 nrotv:                         0
 nrot:                          0

            Memory Information
            ------------------
          Available GA space size is    1610607836 doubles
          Available MA space size is    1610610644 doubles

 Maximum block size supplied by input
 Maximum block size         1 doubles

 tile_dim =      1

 Block   Spin    Irrep     Size     Offset   Alpha
 -------------------------------------------------
   1    alpha     a      1 doubles       0       1
   2    beta      a      1 doubles       1       1
   3    alpha     a      1 doubles       2       3
   4    alpha     a      1 doubles       3       4
   5    alpha     a      1 doubles       4       5
   6    alpha     a      1 doubles       5       6
   7    alpha     a      1 doubles       6       7
   8    alpha     a      1 doubles       7       8
   9    alpha     a      1 doubles       8       9
  10    alpha     a      1 doubles       9      10
  11    alpha     a      1 doubles      10      11
  12    beta      a      1 doubles      11       3
  13    beta      a      1 doubles      12       4
  14    beta      a      1 doubles      13       5
  15    beta      a      1 doubles      14       6
  16    beta      a      1 doubles      15       7
  17    beta      a      1 doubles      16       8
  18    beta      a      1 doubles      17       9
  19    beta      a      1 doubles      18      10
  20    beta      a      1 doubles      19      11

 Global array virtual files algorithm will be used

 Parallel file system coherency ......... OK

 Integral file          = ./H2.aoints.0
 Record size in doubles =  65536        No. of integs per rec  =  43688
 Max. records in memory =     99        Max. records in file   = 280277
 No. of bits per label  =      8        No. of bits per value  =     64


 #quartets = 2.216D+04 #integrals = 8.606D+05 #direct =  0.0% #cached =100.0%


 Fock matrix recomputed
 1-e file size   =              100
 1-e file name   = ./H2.f1
 Cpu & wall time / sec            0.1            0.1
 4-electron integrals stored in orbital form

 v2    file size   =             1540
 4-index algorithm nr.  13 is used
 imaxsize =       30
 imaxsize ichop =        0
 begin_one_electron_integrals
    1    1        -0.9950717482
    3    1         0.1185587293
    6    1        -0.0049297709
   10    1         0.0062846040
    2    2        -0.6794631689
    7    2         0.0840431387
    1    3         0.1185587293
    3    3        -0.1602127790
    6    3         0.0657995544
   10    3         0.3856290999
    4    4        -0.1958981739
    5    5        -0.1958981739
    1    6        -0.0049297709
    3    6         0.0657995544
    6    6         0.3735249669
   10    6         0.1508433330
    2    7         0.0840431387
    7    7         0.6365371885
    8    8         0.5982323273
    9    9         0.5982323273
    1   10         0.0062846040
    3   10         0.3856290999
    6   10         0.1508433330
   10   10         1.3644341963
 end_one_electron_integrals
 begin_two_electron_integrals
    1    1    1    1        0.5255652577
    2    1    2    1        0.1699749487
    3    1    1    1       -0.1248457980
    3    1    3    1        0.0927777607
    3    1    2    2       -0.1074054973
    4    1    4    1        0.0852434977
    5    1    5    1        0.0852434977
    6    1    1    1        0.0315902373
    6    1    3    1        0.0037148135
    6    1    6    1        0.0730489468
    6    1    2    2        0.0794777434
    6    1    3    3        0.0053857603
    6    1    4    4       -0.0100342162
    6    1    5    5       -0.0100342162
    7    1    2    1        0.0483802479
    7    1    7    1        0.0648424868
    7    1    3    2       -0.0463105104
    7    1    6    2        0.0396832556
    8    1    8    1        0.0563634180
    8    1    4    2        0.0425061868
    8    1    5    2       -0.0006470463
    8    1    7    4        0.0041283833
    8    1    7    5       -0.0000628439
    9    1    9    1        0.0563634180
    9    1    4    2        0.0006470463
    9    1    5    2        0.0425061868
    9    1    7    4        0.0000628439
    9    1    7    5        0.0041283833
   10    1    1    1       -0.0040232555
   10    1    3    1        0.0300132212
   10    1    6    1        0.0064987997
   10    1   10    1        0.0395833976
   10    1    2    2        0.0060707900
   10    1    7    2       -0.0201454634
   10    1    3    3       -0.0332800964
   10    1    6    3       -0.0130242925
   10    1    4    4        0.0113439261
   10    1    5    5        0.0113439261
   10    1    6    6        0.0071947432
   10    1    7    7       -0.0257311688
   10    1    8    8        0.0145453510
   10    1    9    9        0.0145453510
    2    2    1    1        0.5289812407
    2    2    2    2        0.5664330365
    3    2    2    1       -0.0184246084
    3    2    3    2        0.0354583723
    4    2    4    2        0.0322830725
    5    2    5    2        0.0322830725
    6    2    2    1        0.1365559935
    6    2    3    2       -0.0140784438
    6    2    6    2        0.1345797398
    7    2    1    1        0.1175137564
    7    2    3    1       -0.0867562216
    7    2    6    1        0.0197735686
    7    2    2    2        0.1152916235
    7    2    7    2        0.1037756638
    7    2    3    3        0.1012250710
    7    2    6    3       -0.0005604083
    7    2    4    4        0.0885707849
    7    2    5    5        0.0885707849
    7    2    6    6        0.1232622026
    8    2    4    1        0.0742362190
    8    2    5    1       -0.0011300536
    8    2    8    2        0.0838275428
    8    2    4    3       -0.0069376920
    8    2    5    3        0.0001056083
    8    2    6    4       -0.0195003369
    8    2    6    5        0.0002968420
    9    2    4    1        0.0011300536
    9    2    5    1        0.0742362190
    9    2    9    2        0.0838275428
    9    2    4    3       -0.0001056083
    9    2    5    3       -0.0069376920
    9    2    6    4       -0.0002968420
    9    2    6    5       -0.0195003369
   10    2    2    1        0.0169888909
   10    2    7    1       -0.0036323688
   10    2    3    2        0.0032862537
   10    2    6    2        0.0164153828
   10    2   10    2        0.0163844210
   10    2    7    3        0.0034248454
   10    2    8    4        0.0173165201
   10    2    9    4        0.0002635990
   10    2    8    5       -0.0002635990
   10    2    9    5        0.0173165201
   10    2    7    6        0.0038861014
    3    3    1    1        0.4683000599
    3    3    3    1       -0.1209482944
    3    3    2    2        0.4541930062
    3    3    3    3        0.4491381406
    4    3    4    1       -0.0120163589
    4    3    4    3        0.0219085996
    5    3    5    1       -0.0120163589
    5    3    5    3        0.0219085996
    6    3    1    1        0.0317534425
    6    3    3    1       -0.0212332589
    6    3    6    1       -0.0163282553
    6    3    2    2        0.0187252530
    6    3    3    3        0.0396781106
    6    3    6    3        0.0242441615
    6    3    4    4        0.0336852411
    6    3    5    5        0.0336852411
    7    3    2    1       -0.1275098243
    7    3    7    1       -0.0442387362
    7    3    3    2        0.0186478446
    7    3    6    2       -0.0928715538
    7    3    7    3        0.1155400357
    8    3    8    1       -0.0054499566
    8    3    4    2       -0.0029115888
    8    3    5    2        0.0000443214
    8    3    8    3        0.0130817746
    8    3    7    4       -0.0124656656
    8    3    7    5        0.0001897574
    9    3    9    1       -0.0054499566
    9    3    4    2       -0.0000443214
    9    3    5    2       -0.0029115888
    9    3    9    3        0.0130817746
    9    3    7    4       -0.0001897574
    9    3    7    5       -0.0124656656
   10    3    1    1        0.1283485897
   10    3    3    1       -0.0927610102
   10    3    6    1       -0.0128853802
   10    3   10    1       -0.0417239062
   10    3    2    2        0.1048450361
   10    3    7    2        0.0767877464
   10    3    3    3        0.1362263876
   10    3    6    3        0.0283506262
   10    3   10    3        0.1127198317
   10    3    4    4        0.1092295566
   10    3    5    5        0.1092295566
   10    3    6    6        0.1180422354
   10    3    7    7        0.1341827384
   10    3    8    8        0.1044370643
   10    3    9    9        0.1044370643
    4    4    1    1        0.4918592694
    4    4    3    1       -0.1051007571
    4    4    2    2        0.4719160004
    4    4    3    3        0.4390828157
    4    4    4    4        0.5180411510
    5    4    5    4        0.0259811534
    6    4    4    1       -0.0440253840
    6    4    4    3        0.0079622867
    6    4    6    4        0.0415775970
    7    4    4    2        0.0018606083
    7    4    7    4        0.0120283063
    8    4    2    1        0.1189896144
    8    4    7    1        0.0272614131
    8    4    3    2       -0.0093765847
    8    4    6    2        0.0790058991
    8    4    7    3       -0.0880110545
    8    4    8    4        0.1116077041
    8    4    7    6        0.0257338865
    9    4    2    1        0.0018113077
    9    4    7    1        0.0004149842
    9    4    3    2       -0.0001427341
    9    4    6    2        0.0012026595
    9    4    7    3       -0.0013397396
    9    4    8    4        0.0014939206
    9    4    9    4        0.0134908365
    9    4    8    5        0.0134453544
    9    4    7    6        0.0003917316
   10    4    4    1        0.0338116905
   10    4    8    2        0.0287585431
   10    4    9    2        0.0004377741
   10    4    4    3        0.0022346796
   10    4    6    4       -0.0199266322
   10    4   10    4        0.0253473389
   10    4    8    7       -0.0013052479
   10    4    9    7       -0.0000198690
    5    5    1    1        0.4918592694
    5    5    3    1       -0.1051007571
    5    5    2    2        0.4719160004
    5    5    3    3        0.4390828157
    5    5    4    4        0.4660788443
    5    5    5    5        0.5180411510
    6    5    5    1       -0.0440253840
    6    5    5    3        0.0079622867
    6    5    6    5        0.0415775970
    7    5    5    2        0.0018606083
    7    5    7    5        0.0120283063
    8    5    2    1       -0.0018113077
    8    5    7    1       -0.0004149842
    8    5    3    2        0.0001427341
    8    5    6    2       -0.0012026595
    8    5    7    3        0.0013397396
    8    5    8    4       -0.0014939206
    8    5    8    5        0.0134908365
    8    5    7    6       -0.0003917316
    9    5    2    1        0.1189896144
    9    5    7    1        0.0272614131
    9    5    3    2       -0.0093765847
    9    5    6    2        0.0790058991
    9    5    7    3       -0.0880110545
    9    5    8    4        0.0846715131
    9    5    9    4        0.0014939206
    9    5    8    5       -0.0014939206
    9    5    9    5        0.1116077041
    9    5    7    6        0.0257338865
   10    5    5    1        0.0338116905
   10    5    8    2       -0.0004377741
   10    5    9    2        0.0287585431
   10    5    5    3        0.0022346796
   10    5    6    5       -0.0199266322
   10    5   10    5        0.0253473389
   10    5    8    7        0.0000198690
   10    5    9    7       -0.0013052479
    6    6    1    1        0.5389520972
    6    6    3    1       -0.1198419438
    6    6    6    1        0.0605167489
    6    6    2    2        0.5611397055
    6    6    3    3        0.4646026272
    6    6    6    3        0.0247680049
    6    6    4    4        0.4929087351
    6    6    5    5        0.4929087351
    6    6    6    6        0.5831387283
    7    6    2    1        0.0468289494
    7    6    7    1        0.0398091587
    7    6    3    2       -0.0253892307
    7    6    6    2        0.0456377427
    7    6    7    3       -0.0349742626
    7    6    7    6        0.0400553623
    8    6    8    1        0.0169650843
    8    6    4    2        0.0117334195
    8    6    5    2       -0.0001786108
    8    6    8    3       -0.0010587198
    8    6    7    4        0.0018848420
    8    6    7    5       -0.0000286918
    8    6    8    6        0.0186236116
    9    6    9    1        0.0169650843
    9    6    4    2        0.0001786108
    9    6    5    2        0.0117334195
    9    6    9    3       -0.0010587198
    9    6    7    4        0.0000286918
    9    6    7    5        0.0018848420
    9    6    9    6        0.0186236116
   10    6    1    1        0.0193640185
   10    6    3    1       -0.0194927944
   10    6    6    1        0.0146321622
   10    6   10    1       -0.0170383925
   10    6    2    2        0.0254008633
   10    6    7    2        0.0155341826
   10    6    3    3        0.0245807915
   10    6    6    3        0.0081795828
   10    6   10    3        0.0256199808
   10    6    4    4        0.0007970829
   10    6    5    5        0.0007970829
   10    6    6    6        0.0224812240
   10    6   10    6        0.0205535443
   10    6    7    7        0.0244453856
   10    6    8    8        0.0145780661
   10    6    9    9        0.0145780661
    7    7    1    1        0.5219645553
    7    7    3    1       -0.1320044320
    7    7    6    1        0.0577186291
    7    7    2    2        0.5401918274
    7    7    7    2        0.1373420167
    7    7    3    3        0.4760064869
    7    7    6    3        0.0219569735
    7    7    4    4        0.4634338292
    7    7    5    5        0.4634338292
    7    7    6    6        0.5348237669
    7    7    7    7        0.5596120474
    8    7    4    1        0.0090786983
    8    7    5    1       -0.0001381996
    8    7    8    2        0.0097271271
    8    7    4    3       -0.0178491247
    8    7    5    3        0.0002717065
    8    7    6    4       -0.0014178270
    8    7    6    5        0.0000215827
    8    7    8    7        0.0228014591
    9    7    4    1        0.0001381996
    9    7    5    1        0.0090786983
    9    7    9    2        0.0097271271
    9    7    4    3       -0.0002717065
    9    7    5    3       -0.0178491247
    9    7    6    4       -0.0000215827
    9    7    6    5       -0.0014178270
    9    7    9    7        0.0228014591
   10    7    2    1       -0.0166606923
   10    7    7    1       -0.0366281432
   10    7    3    2        0.0279984872
   10    7    6    2       -0.0066404947
   10    7   10    2        0.0079709206
   10    7    7    3        0.0235315430
   10    7    8    4       -0.0103308851
   10    7    9    4       -0.0001572609
   10    7    8    5        0.0001572609
   10    7    9    5       -0.0103308851
   10    7    7    6       -0.0144651423
   10    7   10    7        0.0353834566
    8    8    1    1        0.5180270709
    8    8    3    1       -0.1047261699
    8    8    6    1        0.0392385314
    8    8    2    2        0.5309003155
    8    8    7    2        0.1009300191
    8    8    3    3        0.4474869211
    8    8    6    3        0.0251445041
    8    8    4    4        0.5090874862
    8    8    5    4       -0.0006131740
    8    8    5    5        0.4688157927
    8    8    6    6        0.5262593582
    8    8    7    7        0.5060265171
    8    8    8    8        0.5541541471
    9    8    4    4        0.0006131740
    9    8    5    4        0.0201358467
    9    8    5    5       -0.0006131740
    9    8    9    8        0.0243956157
   10    8    8    1        0.0208572720
   10    8    4    2        0.0159077539
   10    8    5    2       -0.0002421542
   10    8    8    3        0.0005991820
   10    8    7    4       -0.0012471452
   10    8    7    5        0.0000189845
   10    8    8    6        0.0050984547
   10    8   10    8        0.0139083567
    9    9    1    1        0.5180270709
    9    9    3    1       -0.1047261699
    9    9    6    1        0.0392385314
    9    9    2    2        0.5309003155
    9    9    7    2        0.1009300191
    9    9    3    3        0.4474869211
    9    9    6    3        0.0251445041
    9    9    4    4        0.4688157927
    9    9    5    4        0.0006131740
    9    9    5    5        0.5090874862
    9    9    6    6        0.5262593582
    9    9    7    7        0.5060265171
    9    9    8    8        0.5053629158
    9    9    9    9        0.5541541471
   10    9    9    1        0.0208572720
   10    9    4    2        0.0002421542
   10    9    5    2        0.0159077539
   10    9    9    3        0.0005991820
   10    9    7    4       -0.0000189845
   10    9    7    5       -0.0012471452
   10    9    9    6        0.0050984547
   10    9   10    9        0.0139083567
   10   10    1    1        0.5032406398
   10   10    3    1       -0.1479386307
   10   10    6    1       -0.0068862365
   10   10   10    1       -0.0450197472
   10   10    2    2        0.4769168295
   10   10    7    2        0.1187254096
   10   10    3    3        0.4876139888
   10   10    6    3        0.0516021336
   10   10   10    3        0.1747568947
   10   10    4    4        0.4737800134
   10   10    5    5        0.4737800134
   10   10    6    6        0.4948027361
   10   10   10    6        0.0311252025
   10   10    7    7        0.5047850719
   10   10    8    8        0.4757203881
   10   10    9    9        0.4757203881
   10   10   10   10        0.5507665169
 end_two_electron_integrals
 enrep_tce =   0.41666666666666663     
  EHF(A)             =        -1.04791157
  EHF(total)         =        -1.04791157
  Shift (HFtot-HFA)  =        -0.00000000
 Cpu & wall time / sec            1.7            1.7
 T1-number-of-tasks                    9

 t1 file size   =                9
 t1 file name   = ./H2.t1
 t1 file handle =       -998
 T2-number-of-boxes                  126

 t2 file size   =              126
 t2 file name   = ./H2.t2
 t2 file handle =       -996
CCSD iterations
 ---------------------------------------------------------
 Iter          Residuum       Correlation     Cpu    Wall 
 ---------------------------------------------------------
NEW TASK SCHEDULING
CCSD_T1_NTS --- OK
CCSD_T2_NTS --- OK
    1   0.5304028335384  -0.0793264394565     0.5     0.5
    2   1.6607679043360   0.0286654719040     0.4     0.5
    3   6.4725043710010  -0.2632657245732     0.4     0.5
    4  24.5620064211615   0.7393517614213     0.4     0.5
    5 139.5672460464563  -1.9446258577348     0.4     0.5
 MICROCYCLE DIIS UPDATE:                    5                    5
    6   0.0755266486020  -0.0494261044312     0.4     0.5
    7   0.3012979098010  -0.0490626318725     0.4     0.5
    8   1.2739603097753  -0.0662728551933     0.5     0.5
    9   5.4276677980050   0.0237700821598     0.4     0.5
   10  23.9832550236543  -0.2917465602113     0.3     0.6
 MICROCYCLE DIIS UPDATE:                   10                    5
   11   0.0058926746057  -0.0520046250691     0.4     0.5
   12   0.0116894206767  -0.0523350102103     0.4     0.5
   13   0.0393013796606  -0.0536536975230     0.5     0.5
   14   0.1519569084586  -0.0487237479788     0.3     0.5
   15   0.6675792147134  -0.0485120593442     0.2     0.5
 MICROCYCLE DIIS UPDATE:                   15                    5
   16   0.0004994293999  -0.0528311148431     0.4     0.5
   17   0.0016614580598  -0.0527929309908     0.4     0.5
   18   0.0072626120207  -0.0528198767780     0.5     0.5
   19   0.0318443029819  -0.0527631026691     0.3     0.6
   20   0.1392564964183  -0.0523932413063     0.5     0.5
 MICROCYCLE DIIS UPDATE:                   20                    5
   21   0.0000365644197  -0.0528123831979     0.4     0.5
   22   0.0000541257620  -0.0528156098620     0.5     0.5
   23   0.0001639797477  -0.0528186021019     0.5     0.5
   24   0.0007140380021  -0.0528177115823     0.3     0.5
   25   0.0031119832262  -0.0528095828696     0.3     0.5
 MICROCYCLE DIIS UPDATE:                   25                    5
   26   0.0000007137848  -0.0528179979680     0.4     0.5
   27   0.0000009807566  -0.0528178914092     0.3     0.5
   28   0.0000024941845  -0.0528180847302     0.4     0.5
   29   0.0000085215807  -0.0528176225236     0.3     0.5
   30   0.0000334075815  -0.0528189974510     0.4     0.5
 MICROCYCLE DIIS UPDATE:                   30                    5
   31   0.0000000256372  -0.0528179557870     0.5     0.5
 -----------------------------------------------------------------
 Iterations converged
 CCSD correlation energy / hartree =        -0.052817955787008
 CCSD total energy / hartree       =        -1.100729527859669

 Singles contributions

 Doubles contributions
     2a   (alpha)     2a   (beta ) ---     1a   (alpha)     1a   (beta )       -0.2218936874
     3a   (alpha)     3a   (beta ) ---     1a   (alpha)     1a   (beta )       -0.0489433504
     4a   (alpha)     4a   (beta ) ---     1a   (alpha)     1a   (beta )       -0.0449324030
     5a   (alpha)     5a   (beta ) ---     1a   (alpha)     1a   (beta )       -0.0449324030
 Ground state specification:
 exp(T)|Ref>~(1+T)|Ref>
 ------- a(p)+/a(q) strings ----------

 singles norm

 doubles norm

 Reference string
  0.97625493242584471      :(1a)+ (1b)+ |0>

 Singles strings

 Doubles strings
 -0.21662480678400894      :(2a)+ (2b)+ (1b)  (1a)  (1a)+ (1b)+ |0>
 -------------------------------------

 Parallel integral file used      20 records with       0 large values


 Task  times  cpu:       14.3s     wall:       19.0s


                                NWChem Input Module
                                -------------------


 Summary of allocated global arrays
-----------------------------------
  No active global arrays


MA_summarize_allocated_blocks: starting scan ...
MA_summarize_allocated_blocks: scan completed: 0 heap blocks, 0 stack blocks
MA usage statistics:

	allocation statistics:
					      heap	     stack
					      ----	     -----
	current number of blocks	         0	         0
	maximum number of blocks	        18	        42
	current total bytes		         0	         0
	maximum total bytes		  51983048	  61995224
	maximum total K-bytes		     51984	     61996
	maximum total M-bytes		        52	        62


                                     CITATION
                                     --------
                Please cite the following reference when publishing
                           results obtained with NWChem:

          E. Apra, E. J. Bylaska, W. A. de Jong, N. Govind, K. Kowalski,
       T. P. Straatsma, M. Valiev, H. J. J. van Dam, Y. Alexeev, J. Anchell,
       V. Anisimov, F. W. Aquino, R. Atta-Fynn, J. Autschbach, N. P. Bauman,
     J. C. Becca, D. E. Bernholdt, K. Bhaskaran-Nair, S. Bogatko, P. Borowski,
         J. Boschen, J. Brabec, A. Bruner, E. Cauet, Y. Chen, G. N. Chuev,
      C. J. Cramer, J. Daily, M. J. O. Deegan, T. H. Dunning Jr., M. Dupuis,
   K. G. Dyall, G. I. Fann, S. A. Fischer, A. Fonari, H. Fruchtl, L. Gagliardi,
      J. Garza, N. Gawande, S. Ghosh, K. Glaesemann, A. W. Gotz, J. Hammond,
       V. Helms, E. D. Hermes, K. Hirao, S. Hirata, M. Jacquelin, L. Jensen,
   B. G. Johnson, H. Jonsson, R. A. Kendall, M. Klemm, R. Kobayashi, V. Konkov,
      S. Krishnamoorthy, M. Krishnan, Z. Lin, R. D. Lins, R. J. Littlefield,
      A. J. Logsdail, K. Lopata, W. Ma, A. V. Marenich, J. Martin del Campo,
   D. Mejia-Rodriguez, J. E. Moore, J. M. Mullin, T. Nakajima, D. R. Nascimento,
    J. A. Nichols, P. J. Nichols, J. Nieplocha, A. Otero-de-la-Roza, B. Palmer,
    A. Panyala, T. Pirojsirikul, B. Peng, R. Peverati, J. Pittner, L. Pollack,
   R. M. Richard, P. Sadayappan, G. C. Schatz, W. A. Shelton, D. W. Silverstein,
   D. M. A. Smith, T. A. Soares, D. Song, M. Swart, H. L. Taylor, G. S. Thomas,
            V. Tipparaju, D. G. Truhlar, K. Tsemekhman, T. Van Voorhis,
      A. Vazquez-Mayagoitia, P. Verma, O. Villa, A. Vishnu, K. D. Vogiatzis,
        D. Wang, J. H. Weare, M. J. Williamson, T. L. Windus, K. Wolinski,
        A. T. Wong, Q. Wu, C. Yang, Q. Yu, M. Zacharias, Z. Zhang, Y. Zhao,
                                and R. J. Harrison
                        "NWChem: Past, present, and future
                         J. Chem. Phys. 152, 184102 (2020)
                               doi:10.1063/5.0004997

                                      AUTHORS
                                      -------
  E. Apra, E. J. Bylaska, N. Govind, K. Kowalski, M. Valiev, D. Mejia-Rodriguez,
       A. Kunitsa, N. P. Bauman, A. Panyala, W. A. de Jong, T. P. Straatsma,
        H. J. J. van Dam, D. Wang, T. L. Windus, J. Hammond, J. Autschbach,
    K. Bhaskaran-Nair, J. Brabec, K. Lopata, S. A. Fischer, S. Krishnamoorthy,
     M. Jacquelin, W. Ma, M. Klemm, O. Villa, Y. Chen, V. Anisimov, F. Aquino,
    S. Hirata, M. T. Hackler, Eric Hermes, L. Jensen, J. E. Moore, J. C. Becca,
      V. Konjkov, T. Risthaus, M. Malagoli, A. Marenich, A. Otero-de-la-Roza,
        J. Mullin, P. Nichols, R. Peverati, J. Pittner, Y. Zhao, P.-D. Fan,
        A. Fonari, M. J. Williamson, R. J. Harrison, J. R. Rehr, M. Dupuis,
     D. Silverstein, D. M. A. Smith, J. Nieplocha, V. Tipparaju, M. Krishnan,
     B. E. Van Kuiken, A. Vazquez-Mayagoitia, M. Swart, Q. Wu, T. Van Voorhis,
     A. A. Auer, M. Nooijen, L. D. Crosby, E. Brown, G. Cisneros, G. I. Fann,
   H. Fruchtl, J. Garza, K. Hirao, R. A. Kendall, J. A. Nichols, K. Tsemekhman,
    K. Wolinski, J. Anchell, D. E. Bernholdt, P. Borowski, T. Clark, D. Clerc,
   H. Dachsel, M. J. O. Deegan, K. Dyall, D. Elwood, E. Glendening, M. Gutowski,
   A. C. Hess, J. Jaffe, B. G. Johnson, J. Ju, R. Kobayashi, R. Kutteh, Z. Lin,
   R. Littlefield, X. Long, B. Meng, T. Nakajima, S. Niu, L. Pollack, M. Rosing,
   K. Glaesemann, G. Sandrone, M. Stave, H. Taylor, G. Thomas, J. H. van Lenthe,
                               A. T. Wong, Z. Zhang.

 Total times  cpu:       18.6s     wall:       24.6s
