 argument  1 = input.nw
  NWChem w/ OpenMP: maximum threads =    1



============================== echo of input deck ==============================
 echo
 start H2
 title "H2"

 memory total 24 gb

 geometry units bohr
 symmetry c1
        H  0.00000000  0.00000000  0.00000000
        H  0.00000000  4.60  0.00000000
 end

 basis
   * library cc-pVQZ
 end

 mcscf
   active  10
   actelec 2
   multiplicity 1
   maxiter 40
   vectors input H2.mos
   vectors output H2.mos
 end

 task mcscf

 scf
   vectors input H2.mos
   vectors output H2-4.60.mos
   noscf
 end

 tce
   2eorb
   2emet 13
   ccsd
   maxiter 300
 end

 set tce:print_integrals T
 set tce:qorb 10
 set tce:qela 1
 set tce:qelb 1

# set tce:qducc T
# set tce:nactv 1
# set tce:nonhf T
# set tce:ducc_model 6

 set tce:printtol 0.02

 task tce
================================================================================


                                         
                                         


             Northwest Computational Chemistry Package (NWChem) 7.0.1
             --------------------------------------------------------


                    Environmental Molecular Sciences Laboratory
                       Pacific Northwest National Laboratory
                                Richland, WA 99352

                              Copyright (c) 1994-2020
                       Pacific Northwest National Laboratory
                            Battelle Memorial Institute

             NWChem is an open-source computational chemistry package
                        distributed under the terms of the
                      Educational Community License (ECL) 2.0
             A copy of the license is included with this distribution
                              in the LICENSE.TXT file

                                  ACKNOWLEDGMENT
                                  --------------

            This software and its documentation were developed at the
            EMSL at Pacific Northwest National Laboratory, a multiprogram
            national laboratory, operated for the U.S. Department of Energy
            by Battelle under Contract Number DE-AC05-76RL01830. Support
            for this work was provided by the Department of Energy Office
            of Biological and Environmental Research, Office of Basic
            Energy Sciences, and the Office of Advanced Scientific Computing.


           Job information
           ---------------

    hostname        = WE46210
    program         = /home/baum612/code/nwchem/bin/LINUX64/nwchem
    date            = Thu Nov  9 16:12:37 2023

    compiled        = Mon_Nov_06_10:06:57_2023
    source          = /home/baum612/code/nwchem
    nwchem branch   = 7.0.0
    nwchem revision = nwchem_on_git-4191-g39d87d64de
    ga revision     = 5.8.1
    use scalapack   = F
    input           = input.nw
    prefix          = H2.
    data base       = ./H2.db
    status          = startup
    nproc           =        1
    time left       =     -1s



           Memory information
           ------------------

    heap     =  805306362 doubles =   6144.0 Mbytes
    stack    =  805306367 doubles =   6144.0 Mbytes
    global   = 1610612736 doubles =  12288.0 Mbytes (distinct from heap & stack)
    total    = 3221225465 doubles =  24576.0 Mbytes
    verify   = yes
    hardfail = no 


           Directory information
           ---------------------

  0 permanent = .
  0 scratch   = .




                                NWChem Input Module
                                -------------------


                                        H2
                                        --
 Turning off AUTOSYM since
 SYMMETRY directive was detected!


          ------
          auto-z
          ------
     1 autoz failed with cvr_scaling = 1.2 changing to 1.3
     2 autoz failed with cvr_scaling = 1.3 changing to 1.4
     3 autoz failed with cvr_scaling = 1.4 changing to 1.5
     4 autoz failed with cvr_scaling = 1.5 changing to 1.6
     5 autoz failed with cvr_scaling = 1.6 changing to 1.7

 AUTOZ failed to generate good internal coordinates.
 Cartesian coordinates will be used in optimizations.



                             Geometry "geometry" -> ""
                             -------------------------

 Output coordinates in a.u. (scale by  1.000000000 to convert to a.u.)

  No.       Tag          Charge          X              Y              Z
 ---- ---------------- ---------- -------------- -------------- --------------
    1 H                    1.0000     0.00000000    -2.30000000     0.00000000
    2 H                    1.0000     0.00000000     2.30000000     0.00000000

      Atomic Mass 
      ----------- 

      H                  1.007825


 Effective nuclear repulsion energy (a.u.)       0.2173913043

            Nuclear Dipole moment (a.u.) 
            ----------------------------
        X                 Y               Z
 ---------------- ---------------- ----------------
     0.0000000000     0.0000000000     0.0000000000


            XYZ format geometry
            -------------------
     2
 geometry
 H                     0.00000000    -1.21710767     0.00000000
 H                     0.00000000     1.21710767     0.00000000



 Summary of "ao basis" -> "" (cartesian)
 ------------------------------------------------------------------------------
       Tag                 Description            Shells   Functions and Types
 ---------------- ------------------------------  ------  ---------------------
 *                          cc-pVQZ                   on all atoms 


                      Basis "ao basis" -> "ao basis" (cartesian)
                      -----
  H (Hydrogen)
  ------------
            Exponent  Coefficients 
       -------------- ---------------------------------------------------------
  1 S  8.26400000E+01  0.002006
  1 S  1.24100000E+01  0.015343
  1 S  2.82400000E+00  0.075579

  2 S  7.97700000E-01  1.000000

  3 S  2.58100000E-01  1.000000

  4 S  8.98900000E-02  1.000000

  5 P  2.29200000E+00  1.000000

  6 P  8.38000000E-01  1.000000

  7 P  2.92000000E-01  1.000000

  8 D  2.06200000E+00  1.000000

  9 D  6.62000000E-01  1.000000

 10 F  1.39700000E+00  1.000000



 Summary of "ao basis" -> "ao basis" (cartesian)
 ------------------------------------------------------------------------------
       Tag                 Description            Shells   Functions and Types
 ---------------- ------------------------------  ------  ---------------------
 H                          cc-pVQZ                 10       35   4s3p2d1f



                            NWChem Direct MCSCF Module
                            --------------------------


                                        H2


     -----------------------------------
       Basis functions:             70
       Inactive shells:              0
       Active shells:               10
       Active electrons:             2
       Symmetry:                    a       
       Multiplicity:                 1
       Orbital rotations:          600
     -----------------------------------

     -----------------------------------
       E2 extrapolation:             F
       Conjugacy:                    T
       Micro CI relax:               T
       Canonical orbitals:           T
       Maximum iterations:          40
       Converge threshold:    1.00E-04
       Conjugacy resets:            20
       Initial levelshift:        0.10
     -----------------------------------

 Loading old vectors from job with title :

H2


   input molecular orbitals = ./H2.mos
  output molecular orbtials = ./H2.mos

       No. of determinants:           100


  Starting Orbital Energies
    -0.326555    -0.172624    -0.000472    -0.000226    -0.000226    -0.000019
    -0.000009    -0.000009    -0.000008    -0.000004     0.455552     0.806504
     0.813999     1.281479     1.281479     1.685807     1.798934     1.798934
     1.959602     1.980449     1.980449     2.083225     2.083225     2.094104
     2.094104     2.162321     2.162321     2.546739     2.919448     2.972063
     4.411765     4.411765     4.436765     4.436765     4.493182     4.551687
     5.928318     6.061629     6.061629     6.064796     6.064796     6.066925
     6.066925     6.066952     6.066952     6.066970     6.066970     6.067572
     6.067572     6.095885     8.039116     8.103962     8.103962     8.133465
     8.133465     8.140441     8.140441     8.180552     8.180552     8.419353
     9.654543     9.662168     9.709822     9.709822     9.716684     9.723366
     9.723366     9.828101    22.460595    22.729260

  Orbital Symmetry Irreps
a    a    a    a    a    a    a    a    a    a    a    a    a    a    a   
a    a    a    a    a    a    a    a    a    a    a    a    a    a    a   
a    a    a    a    a    a    a    a    a    a    a    a    a    a    a   
a    a    a    a    a    a    a    a    a    a    a    a    a    a    a   
a    a    a    a    a    a    a    a    a    a   

 Integral file          = ./H2.aoints.0
 Record size in doubles =  65536        No. of integs per rec  =  43688
 Max. records in memory =     99        Max. records in file   = 280219
 No. of bits per label  =      8        No. of bits per value  =     64


 #quartets = 2.082D+04 #integrals = 6.509D+05 #direct =  0.0% #cached =100.0%




          %%%%% MacroIteration   1 %%%%%


          Number of sigma calls:       15
                       o<<<<< (aa):             0.00
                       o<<<<< (bb):             0.00
                       o<<<<< (ab):             0.00
                       o<<<<< (total)           0.00
                       o<<<<< (aa) ff           0.00
                       o<<<<< (aa) gop          0.00
                       o<<<<< (aa) dot          0.00
                       o<<<<< (ab) str          0.00
                       o<<<<< (ab) gath         0.00
                       o<<<<< (ab) dotab        0.00
                       o<<<<< (ab) scat         0.00
                       o<<<<< (ab) sync         0.00
                       o<<<<< Density           0.00
                       o<<<<< Density one       0.00
                       o<<<<< Density two       0.00
                       o<<<<< Density ab        0.00
                       o<<<<< Spin adapt        0.00
                       o<<<<< Symm adapt        0.00

                       o<<<<< (ab) max sync:      0.00

           >>>| Valence CI:             -1.223765547650
           >>>| MCSCF energy:           -1.006374243302
           >>>| Gradient norm:          0.133443239D-02
     --- Warning:  480 Hessian diagonals < 0.05 ---

                              ----- Line search ------

        step       energy         lsg     num-lsg   num-lsh   lsrat    time
      ------- ---------------- --------- --------- --------- ------- --------
       0.0000      -1.00637424 -3.75D-07  0.00D+00  0.00D+00 0.0D+00      0.2

          Number of sigma calls:       11
                       o<<<<< (aa):             0.00
                       o<<<<< (bb):             0.00
                       o<<<<< (ab):             0.01
                       o<<<<< (total)           0.01
                       o<<<<< (aa) ff           0.00
                       o<<<<< (aa) gop          0.00
                       o<<<<< (aa) dot          0.00
                       o<<<<< (ab) str          0.00
                       o<<<<< (ab) gath         0.00
                       o<<<<< (ab) dotab        0.00
                       o<<<<< (ab) scat         0.00
                       o<<<<< (ab) sync         0.00
                       o<<<<< Density           0.00
                       o<<<<< Density one       0.00
                       o<<<<< Density two       0.00
                       o<<<<< Density ab        0.00
                       o<<<<< Spin adapt        0.00
                       o<<<<< Symm adapt        0.00

                       o<<<<< (ab) max sync:      0.00
       1.0000      -1.00637449 -1.12D-07 -1.12D-07  2.63D-07 3.0D-01      0.4

          Number of sigma calls:       10
                       o<<<<< (aa):             0.00
                       o<<<<< (bb):             0.00
                       o<<<<< (ab):             0.01
                       o<<<<< (total)           0.01
                       o<<<<< (aa) ff           0.00
                       o<<<<< (aa) gop          0.00
                       o<<<<< (aa) dot          0.00
                       o<<<<< (ab) str          0.00
                       o<<<<< (ab) gath         0.00
                       o<<<<< (ab) dotab        0.00
                       o<<<<< (ab) scat         0.00
                       o<<<<< (ab) sync         0.00
                       o<<<<< Density           0.00
                       o<<<<< Density one       0.00
                       o<<<<< Density two       0.00
                       o<<<<< Density ab        0.00
                       o<<<<< Spin adapt        0.00
                       o<<<<< Symm adapt        0.00

                       o<<<<< (ab) max sync:      0.00
       1.4248      -1.00637451  3.22D-11  3.06D-11  2.63D-07 8.6D-05      0.6
     --- Orbitals canonicalized ---



          %%%%% MacroIteration   2 %%%%%


          Number of sigma calls:       15
                       o<<<<< (aa):             0.00
                       o<<<<< (bb):             0.00
                       o<<<<< (ab):             0.01
                       o<<<<< (total)           0.01
                       o<<<<< (aa) ff           0.00
                       o<<<<< (aa) gop          0.00
                       o<<<<< (aa) dot          0.00
                       o<<<<< (ab) str          0.00
                       o<<<<< (ab) gath         0.00
                       o<<<<< (ab) dotab        0.00
                       o<<<<< (ab) scat         0.00
                       o<<<<< (ab) sync         0.00
                       o<<<<< Density           0.00
                       o<<<<< Density one       0.00
                       o<<<<< Density two       0.00
                       o<<<<< Density ab        0.00
                       o<<<<< Spin adapt        0.00
                       o<<<<< Symm adapt        0.00

                       o<<<<< (ab) max sync:      0.00

           >>>| Valence CI:             -1.223765814629
           >>>| MCSCF energy:           -1.006374510281
           >>>| Gradient norm:          0.268159679D-03
     --- Warning:  480 Hessian diagonals < 0.05 ---
     --- Conjugacy reset ---

                              ----- Line search ------

        step       energy         lsg     num-lsg   num-lsh   lsrat    time
      ------- ---------------- --------- --------- --------- ------- --------
       0.0000      -1.00637451 -8.61D-08  0.00D+00  0.00D+00 0.0D+00      0.8

          Number of sigma calls:       10
                       o<<<<< (aa):             0.00
                       o<<<<< (bb):             0.00
                       o<<<<< (ab):             0.01
                       o<<<<< (total)           0.01
                       o<<<<< (aa) ff           0.00
                       o<<<<< (aa) gop          0.00
                       o<<<<< (aa) dot          0.00
                       o<<<<< (ab) str          0.00
                       o<<<<< (ab) gath         0.00
                       o<<<<< (ab) dotab        0.00
                       o<<<<< (ab) scat         0.00
                       o<<<<< (ab) sync         0.00
                       o<<<<< Density           0.00
                       o<<<<< Density one       0.00
                       o<<<<< Density two       0.00
                       o<<<<< Density ab        0.00
                       o<<<<< Spin adapt        0.00
                       o<<<<< Symm adapt        0.00

                       o<<<<< (ab) max sync:      0.00
       1.0000      -1.00637456 -1.74D-08 -1.74D-08  6.87D-08 2.0D-01      1.0

          Number of sigma calls:        9
                       o<<<<< (aa):             0.00
                       o<<<<< (bb):             0.00
                       o<<<<< (ab):             0.01
                       o<<<<< (total)           0.01
                       o<<<<< (aa) ff           0.00
                       o<<<<< (aa) gop          0.00
                       o<<<<< (aa) dot          0.00
                       o<<<<< (ab) str          0.00
                       o<<<<< (ab) gath         0.00
                       o<<<<< (ab) dotab        0.00
                       o<<<<< (ab) scat         0.00
                       o<<<<< (ab) sync         0.00
                       o<<<<< Density           0.00
                       o<<<<< Density one       0.00
                       o<<<<< Density two       0.00
                       o<<<<< Density ab        0.00
                       o<<<<< Spin adapt        0.00
                       o<<<<< Symm adapt        0.00

                       o<<<<< (ab) max sync:      0.00
       1.2531      -1.00637456 -4.90D-13 -4.15D-13  6.87D-08 5.7D-06      1.1



          %%%%% MacroIteration   3 %%%%%


          Number of sigma calls:        1
                       o<<<<< (aa):             0.00
                       o<<<<< (bb):             0.00
                       o<<<<< (ab):             0.00
                       o<<<<< (total)           0.00
                       o<<<<< (aa) ff           0.00
                       o<<<<< (aa) gop          0.00
                       o<<<<< (aa) dot          0.00
                       o<<<<< (ab) str          0.00
                       o<<<<< (ab) gath         0.00
                       o<<<<< (ab) dotab        0.00
                       o<<<<< (ab) scat         0.00
                       o<<<<< (ab) sync         0.00
                       o<<<<< Density           0.00
                       o<<<<< Density one       0.00
                       o<<<<< Density two       0.00
                       o<<<<< Density ab        0.00
                       o<<<<< Spin adapt        0.00
                       o<<<<< Symm adapt        0.00

                       o<<<<< (ab) max sync:      0.00

           >>>| Valence CI:             -1.223765868573
           >>>| MCSCF energy:           -1.006374564225
           >>>| Gradient norm:          0.614341841D-04




     ==============================
            MCSCF Converged
     ==============================



          Canonical Eigenvalues

              1      
    1   -0.3239
    2   -0.1754
    3   -0.0004
    4   -0.0002
    5   -0.0002
    6   -0.0000
    7   -0.0000
    8   -0.0000
    9   -0.0000
   10   -0.0000
   11    0.4570
   12    0.8052
   13    0.8074
   14    1.2826
   15    1.2826
   16    1.6819
   17    1.7986
   18    1.7986
   19    1.9507
   20    1.9850
   21    1.9850
   22    2.0839
   23    2.0839
   24    2.0935
   25    2.0935
   26    2.1552
   27    2.1552
   28    2.5261
   29    2.9149
   30    2.9719
   31    4.4112
   32    4.4112
   33    4.4366
   34    4.4366
   35    4.5111
   36    4.5352
   37    5.9287
   38    6.0610
   39    6.0610
   40    6.0653
   41    6.0653
   42    6.0671
   43    6.0671
   44    6.0671
   45    6.0671
   46    6.0672
   47    6.0672
   48    6.0676
   49    6.0676
   50    6.0927
   51    8.0456
   52    8.1074
   53    8.1074
   54    8.1342
   55    8.1342
   56    8.1403
   57    8.1403
   58    8.1759
   59    8.1759
   60    8.3986
   61    9.6539
   62    9.6614
   63    9.7104
   64    9.7104
   65    9.7229
   66    9.7229
   67    9.7289
   68    9.8178
   69   22.4868
   70   22.7013


          Converged CI vector

   Index           Coefficient          Config. Occupation
         1         -0.82091105          1  1
        12          0.57032517          2  2
        23          0.02058298          3  3

          Number of sigma calls:        1
                       o<<<<< (aa):             0.00
                       o<<<<< (bb):             0.00
                       o<<<<< (ab):             0.00
                       o<<<<< (total)           0.00
                       o<<<<< (aa) ff           0.00
                       o<<<<< (aa) gop          0.00
                       o<<<<< (aa) dot          0.00
                       o<<<<< (ab) str          0.00
                       o<<<<< (ab) gath         0.00
                       o<<<<< (ab) dotab        0.00
                       o<<<<< (ab) scat         0.00
                       o<<<<< (ab) sync         0.00
                       o<<<<< Density           0.00
                       o<<<<< Density one       0.00
                       o<<<<< Density two       0.00
                       o<<<<< Density ab        0.00
                       o<<<<< Spin adapt        0.00
                       o<<<<< Symm adapt        0.00

                       o<<<<< (ab) max sync:      0.00



          Natural orbital occupation numbers

              1      
    1    1.3478
    2    0.6505
    3    0.0008
    4    0.0004
    5    0.0004
    6    0.0000
    7    0.0000
    8    0.0000
    9    0.0000
   10    0.0000


          Number of sigma calls:       15
                       o<<<<< (aa):             0.00
                       o<<<<< (bb):             0.00
                       o<<<<< (ab):             0.01
                       o<<<<< (total)           0.02
                       o<<<<< (aa) ff           0.00
                       o<<<<< (aa) gop          0.00
                       o<<<<< (aa) dot          0.00
                       o<<<<< (ab) str          0.00
                       o<<<<< (ab) gath         0.00
                       o<<<<< (ab) dotab        0.00
                       o<<<<< (ab) scat         0.00
                       o<<<<< (ab) sync         0.00
                       o<<<<< Density           0.00
                       o<<<<< Density one       0.00
                       o<<<<< Density two       0.00
                       o<<<<< Density ab        0.00
                       o<<<<< Spin adapt        0.00
                       o<<<<< Symm adapt        0.00

                       o<<<<< (ab) max sync:      0.00


       Final MCSCF results 
       ------------------- 

       Total MCSCF energy =     -1.006374564224
            Gradient norm =      6.1D-05

    CPU time for solution =      1.4s
   Wall time for solution =      2.0s



                        Analysis of MCSCF natural orbitals
                        ----------------------------------

 Vector    1  Occ=1.347813D+00  E=-3.238576D-01  Symmetry=a
              MO Center=  3.7D-15,  2.1D-12, -2.4D-15, r^2= 2.2D+00
   Bfn.  Coefficient  Atom+Function         Bfn.  Coefficient  Atom+Function  
  ----- ------------  ---------------      ----- ------------  ---------------
     3      0.319949  1 H  s                 38      0.319949  2 H  s          
     4      0.208077  1 H  s                 39      0.208077  2 H  s          
     2      0.166664  1 H  s                 37      0.166664  2 H  s          

 Vector    2  Occ=6.505416D-01  E=-1.753528D-01  Symmetry=a
              MO Center=  1.5D-14, -1.7D-12, -1.1D-14, r^2= 2.4D+00
   Bfn.  Coefficient  Atom+Function         Bfn.  Coefficient  Atom+Function  
  ----- ------------  ---------------      ----- ------------  ---------------
     3      0.387235  1 H  s                 38     -0.387235  2 H  s          
     4      0.206587  1 H  s                 39     -0.206587  2 H  s          
     2      0.195295  1 H  s                 37     -0.195295  2 H  s          

 Vector    3  Occ=8.482889D-04  E=-4.460274D-04  Symmetry=a
              MO Center= -3.0D-14,  2.5D-10,  1.8D-14, r^2= 2.9D+00
   Bfn.  Coefficient  Atom+Function         Bfn.  Coefficient  Atom+Function  
  ----- ------------  ---------------      ----- ------------  ---------------
    12      0.656400  1 H  py                47     -0.656400  2 H  py         
     3      0.651963  1 H  s                 38      0.651963  2 H  s          
     4     -0.475058  1 H  s                 39     -0.475058  2 H  s          
     9     -0.382366  1 H  py                44      0.382366  2 H  py         
    32      0.177797  1 H  fyyy              67     -0.177797  2 H  fyyy       

 Vector    4  Occ=3.707893D-04  E=-2.090144D-04  Symmetry=a
              MO Center=  1.1D-13,  1.6D-11,  5.5D-14, r^2= 2.4D+00
   Bfn.  Coefficient  Atom+Function         Bfn.  Coefficient  Atom+Function  
  ----- ------------  ---------------      ----- ------------  ---------------
     8      1.042733  1 H  px                43      1.042733  2 H  px         
    11     -0.763980  1 H  px                46     -0.763980  2 H  px         
    10      0.526650  1 H  pz                45      0.526650  2 H  pz         
    29     -0.479472  1 H  fxyy              64     -0.479472  2 H  fxyy       
    26     -0.439404  1 H  fxxx              31     -0.439404  1 H  fxzz       

 Vector    5  Occ=3.707893D-04  E=-2.090144D-04  Symmetry=a
              MO Center=  7.8D-14,  1.5D-11, -1.5D-13, r^2= 2.4D+00
   Bfn.  Coefficient  Atom+Function         Bfn.  Coefficient  Atom+Function  
  ----- ------------  ---------------      ----- ------------  ---------------
    10      1.042733  1 H  pz                45      1.042733  2 H  pz         
    13     -0.763980  1 H  pz                48     -0.763980  2 H  pz         
     8     -0.526650  1 H  px                43     -0.526650  2 H  px         
    33     -0.479472  1 H  fyyz              68     -0.479472  2 H  fyyz       
    28     -0.439404  1 H  fxxz              35     -0.439404  1 H  fzzz       

 Vector    6  Occ=2.671246D-05  E=-1.700203D-05  Symmetry=a
              MO Center= -1.1D-13,  5.1D-10,  7.1D-14, r^2= 2.3D+00
   Bfn.  Coefficient  Atom+Function         Bfn.  Coefficient  Atom+Function  
  ----- ------------  ---------------      ----- ------------  ---------------
     9      0.880536  1 H  py                44     -0.880536  2 H  py         
     2      0.639082  1 H  s                 37      0.639082  2 H  s          
     4     -0.442035  1 H  s                 39     -0.442035  2 H  s          
    27     -0.351751  1 H  fxxy              34     -0.351751  1 H  fyzz       
    62      0.351751  2 H  fxxy              69      0.351751  2 H  fyzz       

 Vector    7  Occ=9.217952D-06  E=-7.789111D-06  Symmetry=a
              MO Center= -4.0D-13, -1.4D-11,  2.3D-14, r^2= 1.7D+00
   Bfn.  Coefficient  Atom+Function         Bfn.  Coefficient  Atom+Function  
  ----- ------------  ---------------      ----- ------------  ---------------
     8      1.141556  1 H  px                43     -1.141556  2 H  px         
    26     -0.361143  1 H  fxxx              31     -0.361143  1 H  fxzz       
    61      0.361143  2 H  fxxx              66      0.361143  2 H  fxzz       
    21      0.338052  1 H  dxy               56      0.338052  2 H  dxy        
    29     -0.260127  1 H  fxyy              64      0.260127  2 H  fxyy       

 Vector    8  Occ=9.217952D-06  E=-7.789111D-06  Symmetry=a
              MO Center=  1.3D-14, -1.3D-11,  2.1D-13, r^2= 1.7D+00
   Bfn.  Coefficient  Atom+Function         Bfn.  Coefficient  Atom+Function  
  ----- ------------  ---------------      ----- ------------  ---------------
    10      1.141556  1 H  pz                45     -1.141556  2 H  pz         
    28     -0.361143  1 H  fxxz              35     -0.361143  1 H  fzzz       
    63      0.361143  2 H  fxxz              70      0.361143  2 H  fzzz       
    24      0.338052  1 H  dyz               59      0.338052  2 H  dyz        
    33     -0.260127  1 H  fyyz              68      0.260127  2 H  fyyz       

 Vector    9  Occ=7.297662D-06  E=-6.817035D-06  Symmetry=a
              MO Center=  2.4D-12, -7.7D-10, -1.5D-12, r^2= 2.0D+00
   Bfn.  Coefficient  Atom+Function         Bfn.  Coefficient  Atom+Function  
  ----- ------------  ---------------      ----- ------------  ---------------
     9      1.468373  1 H  py                44      1.468373  2 H  py         
     3     -0.893820  1 H  s                 38      0.893820  2 H  s          
     2      0.783602  1 H  s                 37     -0.783602  2 H  s          
    27     -0.526037  1 H  fxxy              34     -0.526037  1 H  fyzz       
    62     -0.526037  2 H  fxxy              69     -0.526037  2 H  fyzz       

 Vector   10  Occ=2.980748D-06  E=-3.854803D-06  Symmetry=a
              MO Center= -2.4D-14,  1.9D-09, -1.9D-15, r^2= 2.5D+00
   Bfn.  Coefficient  Atom+Function         Bfn.  Coefficient  Atom+Function  
  ----- ------------  ---------------      ----- ------------  ---------------
     9      3.822903  1 H  py                44     -3.822903  2 H  py         
    27     -1.702139  1 H  fxxy              34     -1.702139  1 H  fyzz       
    62      1.702139  2 H  fxxy              69      1.702139  2 H  fyzz       
    32     -1.363968  1 H  fyyy              67      1.363968  2 H  fyyy       
     6     -0.970613  1 H  py                41      0.970613  2 H  py         

 Vector   11  Occ=0.000000D+00  E= 4.569780D-01  Symmetry=a
              MO Center=  1.4D-12, -1.5D-09, -8.6D-13, r^2= 8.4D+00
   Bfn.  Coefficient  Atom+Function         Bfn.  Coefficient  Atom+Function  
  ----- ------------  ---------------      ----- ------------  ---------------
     3      3.091652  1 H  s                 38     -3.091652  2 H  s          
     4     -2.208095  1 H  s                 39      2.208095  2 H  s          
     2     -0.750826  1 H  s                 37      0.750826  2 H  s          
    23     -0.459108  1 H  dyy               58      0.459108  2 H  dyy        
    20     -0.377838  1 H  dxx               25     -0.377838  1 H  dzz        

 Vector   12  Occ=0.000000D+00  E= 8.052141D-01  Symmetry=a
              MO Center= -5.9D-15, -9.3D-08,  4.6D-15, r^2= 5.8D+00
   Bfn.  Coefficient  Atom+Function         Bfn.  Coefficient  Atom+Function  
  ----- ------------  ---------------      ----- ------------  ---------------
     3      3.843007  1 H  s                 38      3.843007  2 H  s          
     4     -1.511065  1 H  s                 39     -1.511065  2 H  s          
     2     -1.206350  1 H  s                 37     -1.206350  2 H  s          
    23     -0.623482  1 H  dyy               58     -0.623482  2 H  dyy        
    20     -0.585150  1 H  dxx               25     -0.585150  1 H  dzz        

 Vector   13  Occ=0.000000D+00  E= 8.074028D-01  Symmetry=a
              MO Center= -4.5D-12,  9.2D-08,  2.8D-12, r^2= 3.3D+00
   Bfn.  Coefficient  Atom+Function         Bfn.  Coefficient  Atom+Function  
  ----- ------------  ---------------      ----- ------------  ---------------
     9      2.697004  1 H  py                44      2.697004  2 H  py         
    12     -1.460392  1 H  py                47     -1.460392  2 H  py         
    27     -1.060879  1 H  fxxy              32     -1.057010  1 H  fyyy       
    34     -1.060879  1 H  fyzz              62     -1.060879  2 H  fxxy       
    67     -1.057010  2 H  fyyy              69     -1.060879  2 H  fyzz       

 Vector   14  Occ=0.000000D+00  E= 1.282582D+00  Symmetry=a
              MO Center= -8.1D-14, -3.0D-11, -1.4D-12, r^2= 3.8D+00
   Bfn.  Coefficient  Atom+Function         Bfn.  Coefficient  Atom+Function  
  ----- ------------  ---------------      ----- ------------  ---------------
    10      5.265942  1 H  pz                45     -5.265942  2 H  pz         
    28     -2.048749  1 H  fxxz              35     -2.048749  1 H  fzzz       
    63      2.048749  2 H  fxxz              70      2.048749  2 H  fzzz       
    33     -2.029464  1 H  fyyz              68      2.029464  2 H  fyyz       
    13     -1.535539  1 H  pz                48      1.535539  2 H  pz         

 Vector   15  Occ=0.000000D+00  E= 1.282582D+00  Symmetry=a
              MO Center=  2.6D-12, -3.1D-11, -1.5D-13, r^2= 3.8D+00
   Bfn.  Coefficient  Atom+Function         Bfn.  Coefficient  Atom+Function  
  ----- ------------  ---------------      ----- ------------  ---------------
     8      5.265942  1 H  px                43     -5.265942  2 H  px         
    26     -2.048749  1 H  fxxx              31     -2.048749  1 H  fxzz       
    61      2.048749  2 H  fxxx              66      2.048749  2 H  fxzz       
    29     -2.029464  1 H  fxyy              64      2.029464  2 H  fxyy       
    11     -1.535539  1 H  px                46      1.535539  2 H  px         

 Vector   16  Occ=0.000000D+00  E= 1.681917D+00  Symmetry=a
              MO Center= -1.5D-12,  1.2D-09,  9.2D-13, r^2= 3.8D+00
   Bfn.  Coefficient  Atom+Function         Bfn.  Coefficient  Atom+Function  
  ----- ------------  ---------------      ----- ------------  ---------------
     9      4.790727  1 H  py                44      4.790727  2 H  py         
     3      2.378827  1 H  s                 38     -2.378827  2 H  s          
    27     -1.832494  1 H  fxxy              32     -1.830282  1 H  fyyy       
    34     -1.832494  1 H  fyzz              62     -1.832494  2 H  fxxy       
    67     -1.830282  2 H  fyyy              69     -1.832494  2 H  fyzz       

 Vector   17  Occ=0.000000D+00  E= 1.798568D+00  Symmetry=a
              MO Center= -5.6D-16,  3.3D-11,  3.0D-14, r^2= 2.8D+00
   Bfn.  Coefficient  Atom+Function         Bfn.  Coefficient  Atom+Function  
  ----- ------------  ---------------      ----- ------------  ---------------
    10      6.105797  1 H  pz                45      6.105797  2 H  pz         
    28     -2.383496  1 H  fxxz              33     -2.388939  1 H  fyyz       
    35     -2.383496  1 H  fzzz              63     -2.383496  2 H  fxxz       
    68     -2.388939  2 H  fyyz              70     -2.383496  2 H  fzzz       
     7     -1.613864  1 H  pz                42     -1.613864  2 H  pz         

 Vector   18  Occ=0.000000D+00  E= 1.798568D+00  Symmetry=a
              MO Center= -4.4D-14,  3.3D-11,  1.9D-15, r^2= 2.8D+00
   Bfn.  Coefficient  Atom+Function         Bfn.  Coefficient  Atom+Function  
  ----- ------------  ---------------      ----- ------------  ---------------
     8      6.105797  1 H  px                43      6.105797  2 H  px         
    26     -2.383496  1 H  fxxx              29     -2.388939  1 H  fxyy       
    31     -2.383496  1 H  fxzz              61     -2.383496  2 H  fxxx       
    64     -2.388939  2 H  fxyy              66     -2.383496  2 H  fxzz       
     5     -1.613864  1 H  px                40     -1.613864  2 H  px         

 Vector   19  Occ=0.000000D+00  E= 1.950651D+00  Symmetry=a
              MO Center= -2.4D-14, -5.1D-10,  2.9D-14, r^2= 3.0D+00
   Bfn.  Coefficient  Atom+Function         Bfn.  Coefficient  Atom+Function  
  ----- ------------  ---------------      ----- ------------  ---------------
     9      4.429269  1 H  py                44     -4.429269  2 H  py         
    27     -1.703826  1 H  fxxy              32     -1.710325  1 H  fyyy       
    34     -1.703826  1 H  fyzz              62      1.703826  2 H  fxxy       
    67      1.710325  2 H  fyyy              69      1.703826  2 H  fyzz       
     6     -1.159075  1 H  py                41      1.159075  2 H  py         

 Vector   20  Occ=0.000000D+00  E= 1.984975D+00  Symmetry=a
              MO Center=  1.3D-14, -3.5D-11, -4.4D-14, r^2= 2.7D+00
   Bfn.  Coefficient  Atom+Function         Bfn.  Coefficient  Atom+Function  
  ----- ------------  ---------------      ----- ------------  ---------------
    24      1.200641  1 H  dyz               59     -1.200641  2 H  dyz        
    10      0.529828  1 H  pz                45      0.529828  2 H  pz         
    21     -0.463801  1 H  dxy               56      0.463801  2 H  dxy        
    13     -0.267645  1 H  pz                48     -0.267645  2 H  pz         
     8     -0.204670  1 H  px                43     -0.204670  2 H  px         


 Wrote Lagrangian and 1- and 2-particle density matrices to ./H2.mcpdm


     Multipole analysis of the density
     ---------------------------------

     L   x y z        total        nuclear
     -   - - -        -----        -------
     0   0 0 0     -0.000000      2.000000

     1   1 0 0     -0.000000      0.000000
     1   0 1 0     -0.000000      0.000000
     1   0 0 1      0.000000      0.000000

     2   2 0 0     -2.054159      0.000000
     2   1 1 0      0.000000      0.000000
     2   1 0 1     -0.000000      0.000000
     2   0 2 0     -1.674323     10.580000
     2   0 1 1     -0.000000      0.000000
     2   0 0 2     -2.054159      0.000000


  Mulliken analysis of the total density
  --------------------------------------

    Atom       Charge   Shell Charges
 -----------   ------   -------------------------------------------------------
    1 H    1     1.00   0.04  0.21  0.48  0.26  0.00 -0.00  0.00  0.00  0.00  0.00
    2 H    1     1.00   0.04  0.21  0.48  0.26  0.00 -0.00  0.00  0.00  0.00  0.00

    Mulliken analysis of the active space density
    ---------------------------------------------

    Atom       Charge   Shell Charges
 -----------   ------   -------------------------------------------------------
    1 H    1     1.00   0.04  0.21  0.48  0.26  0.00 -0.00  0.00  0.00  0.00  0.00
    2 H    1     1.00   0.04  0.21  0.48  0.26  0.00 -0.00  0.00  0.00  0.00  0.00

 Parallel integral file used      15 records with       0 large values


 Task  times  cpu:        1.4s     wall:        2.1s


                                NWChem Input Module
                                -------------------


                                 NWChem SCF Module
                                 -----------------


                                        H2



  ao basis        = "ao basis"
  functions       =    70
  atoms           =     2
  closed shells   =     1
  open shells     =     0
  charge          =   0.00
  wavefunction    = RHF 
  input vectors   = ./H2.mos
  output vectors  = ./H2-4.60.mos
  use symmetry    = F
  symmetry adapt  = F


 Summary of "ao basis" -> "ao basis" (cartesian)
 ------------------------------------------------------------------------------
       Tag                 Description            Shells   Functions and Types
 ---------------- ------------------------------  ------  ---------------------
 H                          cc-pVQZ                 10       35   4s3p2d1f



 Forming initial guess at       2.1s


 Loading old vectors from job with title :

H2


 Starting SCF solution at       2.1s



 ----------------------------------------------
         Quadratically convergent ROHF

 Convergence threshold     :          1.000E-04
 Maximum no. of iterations :           30
 Final Fock-matrix accuracy:          1.000E-07
 ----------------------------------------------


 Integral file          = ./H2.aoints.0
 Record size in doubles =  65536        No. of integs per rec  =  43688
 Max. records in memory =     99        Max. records in file   = 280266
 No. of bits per label  =      8        No. of bits per value  =     64


 #quartets = 1.980D+04 #integrals = 5.438D+05 #direct =  0.0% #cached =100.0%



       Final RHF  results 
       ------------------ 

         Total SCF energy =     -0.859233101705
      One-electron energy =     -1.486396345501
      Two-electron energy =      0.409771939448
 Nuclear repulsion energy =      0.217391304348

        Time for solution =      0.0s


             Final eigenvalues
             -----------------

              1      
    1   -0.3239
    2   -0.1754
    3   -0.0004
    4   -0.0002
    5   -0.0002
    6   -0.0000
    7   -0.0000
    8   -0.0000
    9   -0.0000
   10   -0.0000
   11    0.4570

                       ROHF Final Molecular Orbital Analysis
                       -------------------------------------

 Vector    1  Occ=2.000000D+00  E=-3.238576D-01
              MO Center=  3.7D-15,  2.1D-12, -2.4D-15, r^2= 2.2D+00
   Bfn.  Coefficient  Atom+Function         Bfn.  Coefficient  Atom+Function  
  ----- ------------  ---------------      ----- ------------  ---------------
     3      0.319949  1 H  s                 38      0.319949  2 H  s          
     4      0.208077  1 H  s                 39      0.208077  2 H  s          
     2      0.166664  1 H  s                 37      0.166664  2 H  s          

 Vector    2  Occ=0.000000D+00  E=-1.753528D-01
              MO Center=  1.5D-14, -1.7D-12, -1.1D-14, r^2= 2.4D+00
   Bfn.  Coefficient  Atom+Function         Bfn.  Coefficient  Atom+Function  
  ----- ------------  ---------------      ----- ------------  ---------------
     3      0.387235  1 H  s                 38     -0.387235  2 H  s          
     4      0.206587  1 H  s                 39     -0.206587  2 H  s          
     2      0.195295  1 H  s                 37     -0.195295  2 H  s          

 Vector    3  Occ=0.000000D+00  E=-4.460274D-04
              MO Center= -3.0D-14,  2.5D-10,  1.8D-14, r^2= 2.9D+00
   Bfn.  Coefficient  Atom+Function         Bfn.  Coefficient  Atom+Function  
  ----- ------------  ---------------      ----- ------------  ---------------
    12      0.656400  1 H  py                47     -0.656400  2 H  py         
     3      0.651963  1 H  s                 38      0.651963  2 H  s          
     4     -0.475058  1 H  s                 39     -0.475058  2 H  s          
     9     -0.382366  1 H  py                44      0.382366  2 H  py         
    32      0.177797  1 H  fyyy              67     -0.177797  2 H  fyyy       

 Vector    4  Occ=0.000000D+00  E=-2.090144D-04
              MO Center=  1.1D-13,  1.6D-11,  5.5D-14, r^2= 2.4D+00
   Bfn.  Coefficient  Atom+Function         Bfn.  Coefficient  Atom+Function  
  ----- ------------  ---------------      ----- ------------  ---------------
     8      1.042733  1 H  px                43      1.042733  2 H  px         
    11     -0.763980  1 H  px                46     -0.763980  2 H  px         
    10      0.526650  1 H  pz                45      0.526650  2 H  pz         
    29     -0.479472  1 H  fxyy              64     -0.479472  2 H  fxyy       
    26     -0.439404  1 H  fxxx              31     -0.439404  1 H  fxzz       

 Vector    5  Occ=0.000000D+00  E=-2.090144D-04
              MO Center=  7.8D-14,  1.5D-11, -1.5D-13, r^2= 2.4D+00
   Bfn.  Coefficient  Atom+Function         Bfn.  Coefficient  Atom+Function  
  ----- ------------  ---------------      ----- ------------  ---------------
    10      1.042733  1 H  pz                45      1.042733  2 H  pz         
    13     -0.763980  1 H  pz                48     -0.763980  2 H  pz         
     8     -0.526650  1 H  px                43     -0.526650  2 H  px         
    33     -0.479472  1 H  fyyz              68     -0.479472  2 H  fyyz       
    28     -0.439404  1 H  fxxz              35     -0.439404  1 H  fzzz       

 Vector    6  Occ=0.000000D+00  E=-1.700203D-05
              MO Center= -1.1D-13,  5.1D-10,  7.1D-14, r^2= 2.3D+00
   Bfn.  Coefficient  Atom+Function         Bfn.  Coefficient  Atom+Function  
  ----- ------------  ---------------      ----- ------------  ---------------
     9      0.880536  1 H  py                44     -0.880536  2 H  py         
     2      0.639082  1 H  s                 37      0.639082  2 H  s          
     4     -0.442035  1 H  s                 39     -0.442035  2 H  s          
    27     -0.351751  1 H  fxxy              34     -0.351751  1 H  fyzz       
    62      0.351751  2 H  fxxy              69      0.351751  2 H  fyzz       

 Vector    7  Occ=0.000000D+00  E=-7.789111D-06
              MO Center= -4.0D-13, -1.4D-11,  2.3D-14, r^2= 1.7D+00
   Bfn.  Coefficient  Atom+Function         Bfn.  Coefficient  Atom+Function  
  ----- ------------  ---------------      ----- ------------  ---------------
     8      1.141556  1 H  px                43     -1.141556  2 H  px         
    26     -0.361143  1 H  fxxx              31     -0.361143  1 H  fxzz       
    61      0.361143  2 H  fxxx              66      0.361143  2 H  fxzz       
    21      0.338052  1 H  dxy               56      0.338052  2 H  dxy        
    29     -0.260127  1 H  fxyy              64      0.260127  2 H  fxyy       

 Vector    8  Occ=0.000000D+00  E=-7.789111D-06
              MO Center=  1.3D-14, -1.3D-11,  2.1D-13, r^2= 1.7D+00
   Bfn.  Coefficient  Atom+Function         Bfn.  Coefficient  Atom+Function  
  ----- ------------  ---------------      ----- ------------  ---------------
    10      1.141556  1 H  pz                45     -1.141556  2 H  pz         
    28     -0.361143  1 H  fxxz              35     -0.361143  1 H  fzzz       
    63      0.361143  2 H  fxxz              70      0.361143  2 H  fzzz       
    24      0.338052  1 H  dyz               59      0.338052  2 H  dyz        
    33     -0.260127  1 H  fyyz              68      0.260127  2 H  fyyz       

 Vector    9  Occ=0.000000D+00  E=-6.817035D-06
              MO Center=  2.4D-12, -7.7D-10, -1.5D-12, r^2= 2.0D+00
   Bfn.  Coefficient  Atom+Function         Bfn.  Coefficient  Atom+Function  
  ----- ------------  ---------------      ----- ------------  ---------------
     9      1.468373  1 H  py                44      1.468373  2 H  py         
     3     -0.893820  1 H  s                 38      0.893820  2 H  s          
     2      0.783602  1 H  s                 37     -0.783602  2 H  s          
    27     -0.526037  1 H  fxxy              34     -0.526037  1 H  fyzz       
    62     -0.526037  2 H  fxxy              69     -0.526037  2 H  fyzz       

 Vector   10  Occ=0.000000D+00  E=-3.854803D-06
              MO Center= -2.4D-14,  1.9D-09, -1.9D-15, r^2= 2.5D+00
   Bfn.  Coefficient  Atom+Function         Bfn.  Coefficient  Atom+Function  
  ----- ------------  ---------------      ----- ------------  ---------------
     9      3.822903  1 H  py                44     -3.822903  2 H  py         
    27     -1.702139  1 H  fxxy              34     -1.702139  1 H  fyzz       
    62      1.702139  2 H  fxxy              69      1.702139  2 H  fyzz       
    32     -1.363968  1 H  fyyy              67      1.363968  2 H  fyyy       
     6     -0.970613  1 H  py                41      0.970613  2 H  py         

 Vector   11  Occ=0.000000D+00  E= 4.569780D-01
              MO Center=  1.4D-12, -1.5D-09, -8.6D-13, r^2= 8.4D+00
   Bfn.  Coefficient  Atom+Function         Bfn.  Coefficient  Atom+Function  
  ----- ------------  ---------------      ----- ------------  ---------------
     3      3.091652  1 H  s                 38     -3.091652  2 H  s          
     4     -2.208095  1 H  s                 39      2.208095  2 H  s          
     2     -0.750826  1 H  s                 37      0.750826  2 H  s          
    23     -0.459108  1 H  dyy               58      0.459108  2 H  dyy        
    20     -0.377838  1 H  dxx               25     -0.377838  1 H  dzz        

 Vector   12  Occ=0.000000D+00  E= 8.052141D-01
              MO Center= -5.9D-15, -9.3D-08,  4.6D-15, r^2= 5.8D+00
   Bfn.  Coefficient  Atom+Function         Bfn.  Coefficient  Atom+Function  
  ----- ------------  ---------------      ----- ------------  ---------------
     3      3.843007  1 H  s                 38      3.843007  2 H  s          
     4     -1.511065  1 H  s                 39     -1.511065  2 H  s          
     2     -1.206350  1 H  s                 37     -1.206350  2 H  s          
    23     -0.623482  1 H  dyy               58     -0.623482  2 H  dyy        
    20     -0.585150  1 H  dxx               25     -0.585150  1 H  dzz        


 center of mass
 --------------
 x =   0.00000000 y =   0.00000000 z =   0.00000000

 moments of inertia (a.u.)
 ------------------
          10.662788500000           0.000000000000           0.000000000000
           0.000000000000           0.000000000000           0.000000000000
           0.000000000000           0.000000000000          10.662788500000

  Mulliken analysis of the total density
  --------------------------------------

    Atom       Charge   Shell Charges
 -----------   ------   -------------------------------------------------------
    1 H    1     1.00   0.04  0.20  0.46  0.30  0.00 -0.00  0.00  0.00  0.00  0.00
    2 H    1     1.00   0.04  0.20  0.46  0.30  0.00 -0.00  0.00  0.00  0.00  0.00

       Multipole analysis of the density wrt the origin
       ------------------------------------------------

     L   x y z        total         open         nuclear
     -   - - -        -----         ----         -------
     0   0 0 0     -0.000000      0.000000      2.000000

     1   1 0 0     -0.000000      0.000000      0.000000
     1   0 1 0     -0.000000      0.000000      0.000000
     1   0 0 1      0.000000      0.000000      0.000000

     2   2 0 0     -2.189850      0.000000      0.000000
     2   1 1 0     -0.000000      0.000000      0.000000
     2   1 0 1      0.000000      0.000000      0.000000
     2   0 2 0     -1.086403      0.000000     10.580000
     2   0 1 1      0.000000      0.000000      0.000000
     2   0 0 2     -2.189850      0.000000      0.000000


 Parallel integral file used      13 records with       0 large values

 ------------------------------------
     Number of active orbitals     10
     Number of active alpha electrons      1
     Number of active beta electrons       1
 ------------------------------------
                   NWChem Extensible Many-Electron Theory Module
                   ---------------------------------------------

              ======================================================
                   This portion of the program was automatically
                  generated by a Tensor Contraction Engine (TCE).
                  The development of this portion of the program
                 and TCE was supported by US Department of Energy,
                Office of Science, Office of Basic Energy Science.
                      TCE is a product of Battelle and PNNL.
              Please cite: S.Hirata, J.Phys.Chem.A 107, 9887 (2003).
              ======================================================

                                        H2


            General Information
            -------------------
      Number of processors :     1
         Wavefunction type : Restricted Hartree-Fock
          No. of electrons :     2
           Alpha electrons :     1
            Beta electrons :     1
           No. of orbitals :   140
            Alpha orbitals :    70
             Beta orbitals :    70
        Alpha frozen cores :     0
         Beta frozen cores :     0
     Alpha frozen virtuals :    60
      Beta frozen virtuals :    60
         Spin multiplicity : singlet 
    Number of AO functions :    70
       Number of AO shells :    20
        Use of symmetry is : off
      Symmetry adaption is : off
         Schwarz screening : 0.10D-09

          Correlation Information
          -----------------------
          Calculation type : Coupled-cluster singles & doubles                           
   Perturbative correction : none                                                        
            Max iterations :      300
        Residual threshold : 0.10D-06
     T(0) DIIS level shift : 0.00D+00
     L(0) DIIS level shift : 0.00D+00
     T(1) DIIS level shift : 0.00D+00
     L(1) DIIS level shift : 0.00D+00
     T(R) DIIS level shift : 0.00D+00
     T(I) DIIS level shift : 0.00D+00
   CC-T/L Amplitude update :  5-th order DIIS
                I/O scheme : Global Array Library
        L-threshold :  0.10D-06
        EOM-threshold :  0.10D-06
 no EOMCCSD initial starts read in
 TCE RESTART OPTIONS
 READ_INT:   F
 WRITE_INT:  F
 READ_TA:    F
 WRITE_TA:   F
 READ_XA:    F
 WRITE_XA:   F
 READ_IN3:   F
 WRITE_IN3:  F
 SLICE:      F
 D4D5:       F
 quantumc:   T
 qrotation:  F
 pwtce:      F
 qducc:      F
 nacto:                         0
 nrotv:                         0
 nrot:                          0

            Memory Information
            ------------------
          Available GA space size is    1610607836 doubles
          Available MA space size is    1610610644 doubles

 Maximum block size supplied by input
 Maximum block size         1 doubles

 tile_dim =      1

 Block   Spin    Irrep     Size     Offset   Alpha
 -------------------------------------------------
   1    alpha     a      1 doubles       0       1
   2    beta      a      1 doubles       1       1
   3    alpha     a      1 doubles       2       3
   4    alpha     a      1 doubles       3       4
   5    alpha     a      1 doubles       4       5
   6    alpha     a      1 doubles       5       6
   7    alpha     a      1 doubles       6       7
   8    alpha     a      1 doubles       7       8
   9    alpha     a      1 doubles       8       9
  10    alpha     a      1 doubles       9      10
  11    alpha     a      1 doubles      10      11
  12    beta      a      1 doubles      11       3
  13    beta      a      1 doubles      12       4
  14    beta      a      1 doubles      13       5
  15    beta      a      1 doubles      14       6
  16    beta      a      1 doubles      15       7
  17    beta      a      1 doubles      16       8
  18    beta      a      1 doubles      17       9
  19    beta      a      1 doubles      18      10
  20    beta      a      1 doubles      19      11

 Global array virtual files algorithm will be used

 Parallel file system coherency ......... OK

 Integral file          = ./H2.aoints.0
 Record size in doubles =  65536        No. of integs per rec  =  43688
 Max. records in memory =     99        Max. records in file   = 280266
 No. of bits per label  =      8        No. of bits per value  =     64


 #quartets = 2.088D+04 #integrals = 6.691D+05 #direct =  0.0% #cached =100.0%


 Fock matrix recomputed
 1-e file size   =              100
 1-e file name   = ./H2.f1
 Cpu & wall time / sec            0.0            0.1
 4-electron integrals stored in orbital form

 v2    file size   =             1540
 4-index algorithm nr.  13 is used
 imaxsize =       30
 imaxsize ichop =        0
 begin_one_electron_integrals
    1    1        -0.7431981728
    3    1        -0.0553050204
    6    1        -0.0027533756
   10    1        -0.0019821849
    2    2        -0.6846759784
    9    2        -0.0066510590
    1    3        -0.0553050204
    3    3        -0.1664057035
    6    3         0.0512749932
   10    3         0.2267760936
    4    4        -0.0953487100
    5    5        -0.0953487100
    1    6        -0.0027533756
    3    6         0.0512749932
    6    6         0.0485712064
   10    6         0.1208683395
    7    7         0.4702663255
    8    8         0.4702663255
    2    9        -0.0066510590
    9    9         0.6445218749
   10    9        -0.0000000005
    1   10        -0.0019821849
    3   10         0.2267760936
    6   10         0.1208683395
    9   10        -0.0000000005
   10   10         1.4234104222
 end_one_electron_integrals
 begin_two_electron_integrals
    1    1    1    1        0.4097719402
    2    1    2    1        0.2064110092
    3    1    1    1        0.0425451840
    3    1    3    1        0.0541268998
    3    1    2    2        0.0314907450
    4    1    4    1        0.0481154124
    5    1    5    1        0.0481154124
    6    1    1    1        0.0801797237
    6    1    3    1       -0.0011793142
    6    1    6    1        0.0701627818
    6    1    2    2        0.0964820974
    6    1    3    3        0.0282527383
    6    1    4    4        0.0275946016
    6    1    5    5        0.0275946016
    7    1    7    1        0.0553167869
    7    1    4    2       -0.0365210740
    7    1    5    2        0.0211772631
    8    1    8    1        0.0553167869
    8    1    4    2       -0.0211772631
    8    1    5    2       -0.0365210740
    9    1    2    1        0.0533844929
    9    1    9    1        0.0621145291
    9    1    3    2        0.0241226596
    9    1    6    2        0.0571571483
    9    1    7    4       -0.0254256519
    9    1    8    4       -0.0147434251
    9    1    7    5        0.0147434251
    9    1    8    5       -0.0254256519
   10    1    1    1       -0.0141886754
   10    1    3    1        0.0139394879
   10    1    6    1       -0.0136185890
   10    1   10    1        0.0263020207
   10    1    2    2       -0.0201158627
   10    1    9    2        0.0019214716
   10    1    3    3        0.0181285225
   10    1    6    3        0.0009016002
   10    1    4    4       -0.0076162141
   10    1    5    5       -0.0076162141
   10    1    6    6       -0.0186571970
   10    1    7    7       -0.0134484580
   10    1    8    8       -0.0134484580
   10    1    9    9       -0.0009610722
    2    2    1    1        0.4211328744
    2    2    2    2        0.4385821849
    3    2    2    1       -0.0194754404
    3    2    3    2        0.0306451936
    4    2    4    2        0.0343549612
    5    2    5    2        0.0343549612
    6    2    2    1        0.1121871881
    6    2    3    2       -0.0022821522
    6    2    6    2        0.0875612781
    7    2    4    1       -0.0452145523
    7    2    5    1        0.0262182999
    7    2    7    2        0.0656401909
    7    2    4    3       -0.0076227685
    7    2    5    3        0.0044201705
    7    2    6    4        0.0095043556
    7    2    6    5       -0.0055112355
    8    2    4    1       -0.0262182999
    8    2    5    1       -0.0452145523
    8    2    8    2        0.0656401909
    8    2    4    3       -0.0044201705
    8    2    5    3       -0.0076227685
    8    2    6    4        0.0055112355
    8    2    6    5        0.0095043556
    9    2    1    1        0.0784768690
    9    2    3    1        0.0378805790
    9    2    6    1        0.0547038491
    9    2    2    2        0.0830576219
    9    2    9    2        0.0755881696
    9    2    3    3        0.0551387332
    9    2    6    3       -0.0005603099
    9    2    4    4        0.0409643115
    9    2    5    5        0.0409643115
    9    2    6    6        0.0925013902
    9    2    7    7        0.0804980031
    9    2    8    8        0.0804980031
   10    2    2    1       -0.0244233867
   10    2    9    1       -0.0021687831
   10    2    3    2        0.0083519348
   10    2    6    2       -0.0205280604
   10    2   10    2        0.0250454233
   10    2    9    3        0.0058999438
   10    2    7    4        0.0117781708
   10    2    8    4        0.0068297395
   10    2    7    5       -0.0068297395
   10    2    8    5        0.0117781708
   10    2    9    6       -0.0158563794
    3    3    1    1        0.3589735870
    3    3    3    1        0.0658902671
    3    3    2    2        0.3529909727
    3    3    3    3        0.3799437542
    4    3    4    1        0.0100865968
    4    3    4    3        0.0174972654
    5    3    5    1        0.0100865968
    5    3    5    3        0.0174972654
    6    3    1    1       -0.0230742215
    6    3    3    1       -0.0172965798
    6    3    6    1        0.0079790191
    6    3    2    2       -0.0174112947
    6    3    3    3       -0.0379264943
    6    3    6    3        0.0191724732
    6    3    4    4       -0.0264881019
    6    3    5    5       -0.0264881019
    7    3    7    1        0.0090309429
    7    3    4    2       -0.0047454422
    7    3    5    2        0.0027517120
    7    3    7    3        0.0120565478
    8    3    8    1        0.0090309429
    8    3    4    2       -0.0027517120
    8    3    5    2       -0.0047454422
    8    3    8    3        0.0120565478
    9    3    2    1        0.0910249150
    9    3    9    1        0.0284411103
    9    3    3    2       -0.0025290008
    9    3    6    2        0.0442248850
    9    3    9    3        0.0546533445
    9    3    7    4       -0.0563589951
    9    3    8    4       -0.0326805632
    9    3    7    5        0.0326805632
    9    3    8    5       -0.0563589951
   10    3    1    1        0.0643388767
   10    3    2    1        0.0000000002
   10    3    3    1        0.0499329207
   10    3    6    1        0.0166101769
   10    3   10    1        0.0144257237
   10    3    2    2        0.0586857980
   10    3    9    2        0.0454715500
   10    3    3    3        0.0756428610
   10    3    6    3       -0.0128165033
   10    3    9    3        0.0000000001
   10    3   10    3        0.0650839092
   10    3    4    4        0.0539456510
   10    3    7    4       -0.0000000001
   10    3    5    5        0.0539456510
   10    3    8    5       -0.0000000001
   10    3    6    6        0.0655659816
   10    3    9    6        0.0000000001
   10    3    7    7        0.0767601391
   10    3    8    8        0.0767601391
   10    3    9    9        0.0887774778
    4    4    1    1        0.3530007777
    4    4    3    1        0.0471031143
    4    4    2    2        0.3518759646
    4    4    3    3        0.3338464273
    4    4    4    4        0.3560994454
    5    4    5    4        0.0151080590
    6    4    4    1       -0.0201805167
    6    4    4    3       -0.0067295235
    6    4    6    4        0.0224253265
    7    4    2    1       -0.1227006444
    7    4    3    2        0.0040378210
    7    4    6    2       -0.0535075751
    7    4    7    4        0.0989966125
    8    4    2    1       -0.0711497101
    8    4    3    2        0.0023413878
    8    4    6    2       -0.0310271268
    8    4    7    4        0.0502785276
    8    4    8    4        0.0414439112
    8    4    7    5       -0.0168655245
    9    4    7    1        0.0065277691
    9    4    8    1        0.0037852196
    9    4    4    2       -0.0108148336
    9    4    7    3       -0.0047406538
    9    4    8    3       -0.0027489354
    9    4    9    4        0.0152995939
    9    4    7    6       -0.0063190747
    9    4    8    6       -0.0036642051
   10    4    4    1       -0.0112614232
   10    4    7    2        0.0103843714
   10    4    8    2        0.0060215251
   10    4    4    3       -0.0000562736
   10    4    6    4        0.0066083539
   10    4   10    4        0.0095809385
   10    4    9    7       -0.0046304289
   10    4    9    8       -0.0026850199
    5    5    1    1        0.3530007777
    5    5    3    1        0.0471031143
    5    5    2    2        0.3518759646
    5    5    3    3        0.3338464273
    5    5    4    4        0.3258833275
    5    5    5    5        0.3560994454
    6    5    5    1       -0.0201805167
    6    5    5    3       -0.0067295235
    6    5    6    5        0.0224253265
    7    5    2    1        0.0711497101
    7    5    3    2       -0.0023413878
    7    5    6    2        0.0310271268
    7    5    7    4       -0.0502785276
    7    5    7    5        0.0414439112
    8    5    2    1       -0.1227006444
    8    5    3    2        0.0040378210
    8    5    6    2       -0.0535075751
    8    5    7    4        0.0744182258
    8    5    8    4        0.0502785276
    8    5    7    5       -0.0502785276
    8    5    8    5        0.0989966125
    9    5    7    1       -0.0037852196
    9    5    8    1        0.0065277691
    9    5    5    2       -0.0108148336
    9    5    7    3        0.0027489354
    9    5    8    3       -0.0047406538
    9    5    9    5        0.0152995939
    9    5    7    6        0.0036642051
    9    5    8    6       -0.0063190747
   10    5    5    1       -0.0112614232
   10    5    7    2       -0.0060215251
   10    5    8    2        0.0103843714
   10    5    5    3       -0.0000562736
   10    5    6    5        0.0066083539
   10    5   10    5        0.0095809385
   10    5    9    7        0.0026850199
   10    5    9    8       -0.0046304289
    6    6    1    1        0.3992772034
    6    6    2    1       -0.0000000001
    6    6    3    1        0.0523067800
    6    6    6    1        0.0809008747
    6    6    2    2        0.4075972277
    6    6    3    3        0.3492043107
    6    6    6    3       -0.0255996212
    6    6    4    4        0.3438499332
    6    6    5    5        0.3438499332
    6    6    6    6        0.4091948185
    7    6    7    1        0.0142718340
    7    6    4    2       -0.0060511804
    7    6    5    2        0.0035088628
    7    6    7    3        0.0013120446
    7    6    7    6        0.0144078418
    8    6    8    1        0.0142718340
    8    6    4    2       -0.0035088628
    8    6    5    2       -0.0060511804
    8    6    8    3        0.0013120446
    8    6    8    6        0.0144078418
    9    6    2    1        0.1461317825
    9    6    9    1        0.0638972098
    9    6    3    2        0.0018546124
    9    6    6    2        0.0924678445
    9    6    9    3        0.0675537202
    9    6    7    4       -0.0845407499
    9    6    8    4       -0.0490221537
    9    6    7    5        0.0490221537
    9    6    8    5       -0.0845407499
    9    6    9    6        0.1277810583
   10    6    1    1       -0.0094767161
   10    6    2    1       -0.0000000001
   10    6    3    1        0.0174831388
   10    6    6    1       -0.0237944061
   10    6   10    1        0.0117581384
   10    6    2    2       -0.0181322423
   10    6    9    2       -0.0049543329
   10    6    3    3        0.0115477024
   10    6    6    3       -0.0040427941
   10    6   10    3        0.0108862163
   10    6    4    4        0.0105848881
   10    6    5    5        0.0105848881
   10    6    6    6       -0.0078321375
   10    6    9    6       -0.0000000001
   10    6   10    6        0.0205972336
   10    6    7    7       -0.0005602934
   10    6    8    8       -0.0005602934
   10    6    9    9       -0.0014275184
    7    7    1    1        0.4214747551
    7    7    3    1        0.0573936799
    7    7    6    1        0.0726732028
    7    7    2    2        0.4294764045
    7    7    3    3        0.3703856716
    7    7    6    3       -0.0244814119
    7    7    4    4        0.3842505708
    7    7    5    4       -0.0128440770
    7    7    5    5        0.3695482444
    7    7    6    6        0.4039328593
    7    7    7    7        0.4746103245
    8    7    4    4        0.0128440770
    8    7    5    4        0.0073511632
    8    7    5    5       -0.0128440770
    8    7    8    7        0.0210620679
    9    7    4    1        0.0009901922
    9    7    5    1       -0.0005741770
    9    7    7    2        0.0060783829
    9    7    4    3       -0.0065506985
    9    7    5    3        0.0037985155
    9    7    6    4       -0.0089949042
    9    7    6    5        0.0052158229
    9    7    9    7        0.0184541153
   10    7    7    1       -0.0115196219
   10    7    4    2        0.0081363475
   10    7    5    2       -0.0047179766
   10    7    7    3        0.0057154788
   10    7    9    4       -0.0061471573
   10    7    9    5        0.0035645164
   10    7    7    6       -0.0032653070
   10    7   10    7        0.0125266960
    8    8    1    1        0.4214747551
    8    8    3    1        0.0573936799
    8    8    6    1        0.0726732028
    8    8    2    2        0.4294764045
    8    8    3    3        0.3703856716
    8    8    6    3       -0.0244814119
    8    8    4    4        0.3695482444
    8    8    5    4        0.0128440770
    8    8    5    5        0.3842505708
    8    8    6    6        0.4039328593
    8    8    7    7        0.4324861890
    8    8    8    8        0.4746103245
    9    8    4    1        0.0005741770
    9    8    5    1        0.0009901922
    9    8    8    2        0.0060783829
    9    8    4    3       -0.0037985155
    9    8    5    3       -0.0065506985
    9    8    6    4       -0.0052158229
    9    8    6    5       -0.0089949042
    9    8    9    8        0.0184541153
   10    8    8    1       -0.0115196219
   10    8    4    2        0.0047179766
   10    8    5    2        0.0081363475
   10    8    8    3        0.0057154788
   10    8    9    4       -0.0035645164
   10    8    9    5       -0.0061471573
   10    8    8    6       -0.0032653070
   10    8   10    8        0.0125266960
    9    9    1    1        0.4291169687
    9    9    2    1        0.0000000001
    9    9    3    1        0.0635555293
    9    9    6    1        0.0988560159
    9    9    2    2        0.4404794637
    9    9    9    2        0.1172607166
    9    9    3    3        0.3763653612
    9    9    6    3       -0.0130604153
    9    9    4    4        0.3621636412
    9    9    5    5        0.3621636412
    9    9    6    6        0.4293816575
    9    9    9    6        0.0000000002
    9    9    7    7        0.4401500925
    9    9    8    8        0.4401500925
    9    9    9    9        0.4893865084
   10    9    2    1        0.0276379684
   10    9    9    1        0.0251050265
   10    9    3    2        0.0235737680
   10    9    6    2        0.0097758798
   10    9   10    2        0.0155515078
   10    9    9    3        0.0301043249
   10    9    7    4       -0.0283151830
   10    9    8    4       -0.0164189607
   10    9    7    5        0.0164189607
   10    9    8    5       -0.0283151830
   10    9    9    6        0.0285311816
   10    9   10    9        0.0474264589
   10   10    1    1        0.3891418272
   10   10    3    1        0.0672797454
   10   10    6    1        0.0553184681
   10   10    9    1        0.0000000001
   10   10   10    1        0.0192646822
   10   10    2    2        0.3894926730
   10   10    9    2        0.0797062162
   10   10    3    3        0.3880624041
   10   10    6    3       -0.0274356802
   10   10   10    3        0.0893038216
   10   10    4    4        0.3463530495
   10   10    5    5        0.3463530495
   10   10    6    6        0.3774785723
   10   10    9    6        0.0000000001
   10   10   10    6        0.0088277665
   10   10    7    7        0.4014703288
   10   10    8    8        0.4014703288
   10   10    9    9        0.4231705179
   10   10   10    9        0.0000000001
   10   10   10   10        0.4238271247
 end_two_electron_integrals
 enrep_tce =   0.21739130434782605     
  EHF(A)             =        -0.85923310
  EHF(total)         =        -0.85923310
  Shift (HFtot-HFA)  =        -0.00000000
 Cpu & wall time / sec            1.6            1.7
 T1-number-of-tasks                    9

 t1 file size   =                9
 t1 file name   = ./H2.t1
 t1 file handle =       -998
 T2-number-of-boxes                  126

 t2 file size   =              126
 t2 file name   = ./H2.t2
 t2 file handle =       -996
CCSD iterations
 ---------------------------------------------------------
 Iter          Residuum       Correlation     Cpu    Wall 
 ---------------------------------------------------------
NEW TASK SCHEDULING
CCSD_T1_NTS --- OK
CCSD_T2_NTS --- OK
    1   0.6420551817289  -0.1799829066229     0.4     0.5
    2   2.3657787530510   0.0135570771712     0.5     0.5
    3  13.3523823219446  -0.7294519984338     0.4     0.5
    4 413.1283693938151   5.9031719320949     0.4     0.5
    5****************** 406.3084265721211     0.4     0.5
 MICROCYCLE DIIS UPDATE:                    5                    5
    6   0.1204635455353  -0.1386479706927     0.7     0.8
    7   0.5793038809920  -0.1655508336045     0.6     0.8
    8   3.1031184358945  -0.0810608068934     0.4     0.6
    9  18.6393516713893  -0.2867823362492     0.5     0.5
   10  61.6289573089645   0.9991508428095     0.5     0.5
 MICROCYCLE DIIS UPDATE:                   10                    5
   11   0.0238151502225  -0.1451159781643     0.4     0.5
   12   0.1405150506045  -0.1475315945344     0.3     0.5
   13   0.8562784552066  -0.1498318026738     0.5     0.5
   14   5.2196075622484  -0.1108548745426     0.3     0.5
   15  33.8822821094486  -0.3338316857698     0.4     0.5
 MICROCYCLE DIIS UPDATE:                   15                    5
   16   0.0019148309183  -0.1469713460585     0.4     0.5
   17   0.0111862382848  -0.1470682612206     0.3     0.5
   18   0.0680221059755  -0.1479778920428     0.4     0.5
   19   0.4142087159955  -0.1416003528730     0.3     0.5
   20   2.5555534106947  -0.1774754548733     0.4     0.5
 MICROCYCLE DIIS UPDATE:                   20                    5
   21   0.0000740492951  -0.1471170537216     0.4     0.6
   22   0.0001719965852  -0.1471492752957     0.5     0.5
   23   0.0010025810907  -0.1471068296388     0.7     0.7
   24   0.0059793012659  -0.1473258266237     0.4     0.6
   25   0.0356542869055  -0.1461387147925     0.4     0.6
 MICROCYCLE DIIS UPDATE:                   25                    5
   26   0.0000035969448  -0.1471404364246     0.4     0.5
   27   0.0000121655519  -0.1471429392667     0.4     0.5
   28   0.0000629626305  -0.1471373693471     0.4     0.5
   29   0.0003805536300  -0.1471550540755     0.4     0.5
   30   0.0024263126154  -0.1470917383557     0.4     0.5
 MICROCYCLE DIIS UPDATE:                   30                    5
   31   0.0000001309498  -0.1471414215212     0.4     0.5
   32   0.0000001830501  -0.1471414549819     0.4     0.5
   33   0.0000006732078  -0.1471414973830     0.4     0.5
   34   0.0000028673378  -0.1471413258658     0.4     0.5
   35   0.0000139294149  -0.1471421526896     0.4     0.5
 MICROCYCLE DIIS UPDATE:                   35                    5
   36   0.0000000063218  -0.1471414619573     0.4     0.5
 -----------------------------------------------------------------
 Iterations converged
 CCSD correlation energy / hartree =        -0.147141461957322
 CCSD total energy / hartree       =        -1.006374563662207

 Singles contributions

 Doubles contributions
     2a   (alpha)     2a   (beta ) ---     1a   (alpha)     1a   (beta )       -0.6947406211
     3a   (alpha)     3a   (beta ) ---     1a   (alpha)     1a   (beta )       -0.0250874812
 Ground state specification:
 exp(T)|Ref>~(1+T)|Ref>
 ------- a(p)+/a(q) strings ----------

 singles norm

 doubles norm

 Reference string
  0.82125599135466498      :(1a)+ (1b)+ |0>

 Singles strings

 Doubles strings
 -0.57055989752528735      :(2a)+ (2b)+ (1b)  (1a)  (1a)+ (1b)+ |0>
 -------------------------------------

 Parallel integral file used      16 records with       0 large values


 Task  times  cpu:       16.9s     wall:       22.5s


                                NWChem Input Module
                                -------------------


 Summary of allocated global arrays
-----------------------------------
  No active global arrays


MA_summarize_allocated_blocks: starting scan ...
MA_summarize_allocated_blocks: scan completed: 0 heap blocks, 0 stack blocks
MA usage statistics:

	allocation statistics:
					      heap	     stack
					      ----	     -----
	current number of blocks	         0	         0
	maximum number of blocks	        18	        42
	current total bytes		         0	         0
	maximum total bytes		  51983048	  61995224
	maximum total K-bytes		     51984	     61996
	maximum total M-bytes		        52	        62


                                     CITATION
                                     --------
                Please cite the following reference when publishing
                           results obtained with NWChem:

          E. Apra, E. J. Bylaska, W. A. de Jong, N. Govind, K. Kowalski,
       T. P. Straatsma, M. Valiev, H. J. J. van Dam, Y. Alexeev, J. Anchell,
       V. Anisimov, F. W. Aquino, R. Atta-Fynn, J. Autschbach, N. P. Bauman,
     J. C. Becca, D. E. Bernholdt, K. Bhaskaran-Nair, S. Bogatko, P. Borowski,
         J. Boschen, J. Brabec, A. Bruner, E. Cauet, Y. Chen, G. N. Chuev,
      C. J. Cramer, J. Daily, M. J. O. Deegan, T. H. Dunning Jr., M. Dupuis,
   K. G. Dyall, G. I. Fann, S. A. Fischer, A. Fonari, H. Fruchtl, L. Gagliardi,
      J. Garza, N. Gawande, S. Ghosh, K. Glaesemann, A. W. Gotz, J. Hammond,
       V. Helms, E. D. Hermes, K. Hirao, S. Hirata, M. Jacquelin, L. Jensen,
   B. G. Johnson, H. Jonsson, R. A. Kendall, M. Klemm, R. Kobayashi, V. Konkov,
      S. Krishnamoorthy, M. Krishnan, Z. Lin, R. D. Lins, R. J. Littlefield,
      A. J. Logsdail, K. Lopata, W. Ma, A. V. Marenich, J. Martin del Campo,
   D. Mejia-Rodriguez, J. E. Moore, J. M. Mullin, T. Nakajima, D. R. Nascimento,
    J. A. Nichols, P. J. Nichols, J. Nieplocha, A. Otero-de-la-Roza, B. Palmer,
    A. Panyala, T. Pirojsirikul, B. Peng, R. Peverati, J. Pittner, L. Pollack,
   R. M. Richard, P. Sadayappan, G. C. Schatz, W. A. Shelton, D. W. Silverstein,
   D. M. A. Smith, T. A. Soares, D. Song, M. Swart, H. L. Taylor, G. S. Thomas,
            V. Tipparaju, D. G. Truhlar, K. Tsemekhman, T. Van Voorhis,
      A. Vazquez-Mayagoitia, P. Verma, O. Villa, A. Vishnu, K. D. Vogiatzis,
        D. Wang, J. H. Weare, M. J. Williamson, T. L. Windus, K. Wolinski,
        A. T. Wong, Q. Wu, C. Yang, Q. Yu, M. Zacharias, Z. Zhang, Y. Zhao,
                                and R. J. Harrison
                        "NWChem: Past, present, and future
                         J. Chem. Phys. 152, 184102 (2020)
                               doi:10.1063/5.0004997

                                      AUTHORS
                                      -------
  E. Apra, E. J. Bylaska, N. Govind, K. Kowalski, M. Valiev, D. Mejia-Rodriguez,
       A. Kunitsa, N. P. Bauman, A. Panyala, W. A. de Jong, T. P. Straatsma,
        H. J. J. van Dam, D. Wang, T. L. Windus, J. Hammond, J. Autschbach,
    K. Bhaskaran-Nair, J. Brabec, K. Lopata, S. A. Fischer, S. Krishnamoorthy,
     M. Jacquelin, W. Ma, M. Klemm, O. Villa, Y. Chen, V. Anisimov, F. Aquino,
    S. Hirata, M. T. Hackler, Eric Hermes, L. Jensen, J. E. Moore, J. C. Becca,
      V. Konjkov, T. Risthaus, M. Malagoli, A. Marenich, A. Otero-de-la-Roza,
        J. Mullin, P. Nichols, R. Peverati, J. Pittner, Y. Zhao, P.-D. Fan,
        A. Fonari, M. J. Williamson, R. J. Harrison, J. R. Rehr, M. Dupuis,
     D. Silverstein, D. M. A. Smith, J. Nieplocha, V. Tipparaju, M. Krishnan,
     B. E. Van Kuiken, A. Vazquez-Mayagoitia, M. Swart, Q. Wu, T. Van Voorhis,
     A. A. Auer, M. Nooijen, L. D. Crosby, E. Brown, G. Cisneros, G. I. Fann,
   H. Fruchtl, J. Garza, K. Hirao, R. A. Kendall, J. A. Nichols, K. Tsemekhman,
    K. Wolinski, J. Anchell, D. E. Bernholdt, P. Borowski, T. Clark, D. Clerc,
   H. Dachsel, M. J. O. Deegan, K. Dyall, D. Elwood, E. Glendening, M. Gutowski,
   A. C. Hess, J. Jaffe, B. G. Johnson, J. Ju, R. Kobayashi, R. Kutteh, Z. Lin,
   R. Littlefield, X. Long, B. Meng, T. Nakajima, S. Niu, L. Pollack, M. Rosing,
   K. Glaesemann, G. Sandrone, M. Stave, H. Taylor, G. Thomas, J. H. van Lenthe,
                               A. T. Wong, Z. Zhang.

 Total times  cpu:       18.3s     wall:       24.6s
