 argument  1 = input.nw
  NWChem w/ OpenMP: maximum threads =    1



============================== echo of input deck ==============================
 echo
 start H2
 title "H2"

 memory total 24 gb

 geometry units bohr
 symmetry c1
        H  0.00000000  0.00000000  0.00000000
        H  0.00000000  6.05  0.00000000
 end

 basis
   * library cc-pVQZ
 end

 mcscf
   active  10
   actelec 2
   multiplicity 1
   maxiter 40
   vectors input H2.mos
   vectors output H2.mos
 end

 task mcscf

 scf
   vectors input H2.mos
   vectors output H2-6.05.mos
   noscf
 end

 tce
   2eorb
   2emet 13
   ccsd
   maxiter 300
 end

 set tce:print_integrals T
 set tce:qorb 10
 set tce:qela 1
 set tce:qelb 1

# set tce:qducc T
# set tce:nactv 1
# set tce:nonhf T
# set tce:ducc_model 6

 set tce:printtol 0.02

 task tce
================================================================================


                                         
                                         


             Northwest Computational Chemistry Package (NWChem) 7.0.1
             --------------------------------------------------------


                    Environmental Molecular Sciences Laboratory
                       Pacific Northwest National Laboratory
                                Richland, WA 99352

                              Copyright (c) 1994-2020
                       Pacific Northwest National Laboratory
                            Battelle Memorial Institute

             NWChem is an open-source computational chemistry package
                        distributed under the terms of the
                      Educational Community License (ECL) 2.0
             A copy of the license is included with this distribution
                              in the LICENSE.TXT file

                                  ACKNOWLEDGMENT
                                  --------------

            This software and its documentation were developed at the
            EMSL at Pacific Northwest National Laboratory, a multiprogram
            national laboratory, operated for the U.S. Department of Energy
            by Battelle under Contract Number DE-AC05-76RL01830. Support
            for this work was provided by the Department of Energy Office
            of Biological and Environmental Research, Office of Basic
            Energy Sciences, and the Office of Advanced Scientific Computing.


           Job information
           ---------------

    hostname        = WE46210
    program         = /home/baum612/code/nwchem/bin/LINUX64/nwchem
    date            = Thu Nov  9 16:25:50 2023

    compiled        = Mon_Nov_06_10:06:57_2023
    source          = /home/baum612/code/nwchem
    nwchem branch   = 7.0.0
    nwchem revision = nwchem_on_git-4191-g39d87d64de
    ga revision     = 5.8.1
    use scalapack   = F
    input           = input.nw
    prefix          = H2.
    data base       = ./H2.db
    status          = startup
    nproc           =        1
    time left       =     -1s



           Memory information
           ------------------

    heap     =  805306362 doubles =   6144.0 Mbytes
    stack    =  805306367 doubles =   6144.0 Mbytes
    global   = 1610612736 doubles =  12288.0 Mbytes (distinct from heap & stack)
    total    = 3221225465 doubles =  24576.0 Mbytes
    verify   = yes
    hardfail = no 


           Directory information
           ---------------------

  0 permanent = .
  0 scratch   = .




                                NWChem Input Module
                                -------------------


                                        H2
                                        --
 Turning off AUTOSYM since
 SYMMETRY directive was detected!


          ------
          auto-z
          ------
     1 autoz failed with cvr_scaling = 1.2 changing to 1.3
     2 autoz failed with cvr_scaling = 1.3 changing to 1.4
     3 autoz failed with cvr_scaling = 1.4 changing to 1.5
     4 autoz failed with cvr_scaling = 1.5 changing to 1.6
     5 autoz failed with cvr_scaling = 1.6 changing to 1.7

 AUTOZ failed to generate good internal coordinates.
 Cartesian coordinates will be used in optimizations.



                             Geometry "geometry" -> ""
                             -------------------------

 Output coordinates in a.u. (scale by  1.000000000 to convert to a.u.)

  No.       Tag          Charge          X              Y              Z
 ---- ---------------- ---------- -------------- -------------- --------------
    1 H                    1.0000     0.00000000    -3.02500000     0.00000000
    2 H                    1.0000     0.00000000     3.02500000     0.00000000

      Atomic Mass 
      ----------- 

      H                  1.007825


 Effective nuclear repulsion energy (a.u.)       0.1652892562

            Nuclear Dipole moment (a.u.) 
            ----------------------------
        X                 Y               Z
 ---------------- ---------------- ----------------
     0.0000000000     0.0000000000     0.0000000000


            XYZ format geometry
            -------------------
     2
 geometry
 H                     0.00000000    -1.60076118     0.00000000
 H                     0.00000000     1.60076118     0.00000000



 Summary of "ao basis" -> "" (cartesian)
 ------------------------------------------------------------------------------
       Tag                 Description            Shells   Functions and Types
 ---------------- ------------------------------  ------  ---------------------
 *                          cc-pVQZ                   on all atoms 


                      Basis "ao basis" -> "ao basis" (cartesian)
                      -----
  H (Hydrogen)
  ------------
            Exponent  Coefficients 
       -------------- ---------------------------------------------------------
  1 S  8.26400000E+01  0.002006
  1 S  1.24100000E+01  0.015343
  1 S  2.82400000E+00  0.075579

  2 S  7.97700000E-01  1.000000

  3 S  2.58100000E-01  1.000000

  4 S  8.98900000E-02  1.000000

  5 P  2.29200000E+00  1.000000

  6 P  8.38000000E-01  1.000000

  7 P  2.92000000E-01  1.000000

  8 D  2.06200000E+00  1.000000

  9 D  6.62000000E-01  1.000000

 10 F  1.39700000E+00  1.000000



 Summary of "ao basis" -> "ao basis" (cartesian)
 ------------------------------------------------------------------------------
       Tag                 Description            Shells   Functions and Types
 ---------------- ------------------------------  ------  ---------------------
 H                          cc-pVQZ                 10       35   4s3p2d1f



                            NWChem Direct MCSCF Module
                            --------------------------


                                        H2


     -----------------------------------
       Basis functions:             70
       Inactive shells:              0
       Active shells:               10
       Active electrons:             2
       Symmetry:                    a       
       Multiplicity:                 1
       Orbital rotations:          600
     -----------------------------------

     -----------------------------------
       E2 extrapolation:             F
       Conjugacy:                    T
       Micro CI relax:               T
       Canonical orbitals:           T
       Maximum iterations:          40
       Converge threshold:    1.00E-04
       Conjugacy resets:            20
       Initial levelshift:        0.10
     -----------------------------------

 Loading old vectors from job with title :

H2


   input molecular orbitals = ./H2.mos
  output molecular orbtials = ./H2.mos

       No. of determinants:           100


  Starting Orbital Energies
    -0.275355    -0.224486    -0.000079    -0.000024    -0.000024    -0.000001
    -0.000000    -0.000000    -0.000000    -0.000000     0.431204     0.651602
     0.819513     1.148579     1.148579     1.757518     1.818104     1.818104
     1.862637     2.040572     2.040572     2.062282     2.062282     2.090010
     2.090010     2.090152     2.090152     2.157298     2.869134     2.976810
     4.385845     4.385845     4.394586     4.432056     4.432056     4.544893
     5.943044     6.055401     6.055401     6.060401     6.068890     6.068890
     6.070056     6.070056     6.070056     6.070056     6.070100     6.070100
     6.070102     6.070102     8.124694     8.134980     8.134980     8.140694
     8.140694     8.141763     8.141763     8.141829     8.141829     8.144859
     9.631988     9.673208     9.699468     9.712348     9.712348     9.718783
     9.718783     9.781779    22.197411    22.689040

  Orbital Symmetry Irreps
a    a    a    a    a    a    a    a    a    a    a    a    a    a    a   
a    a    a    a    a    a    a    a    a    a    a    a    a    a    a   
a    a    a    a    a    a    a    a    a    a    a    a    a    a    a   
a    a    a    a    a    a    a    a    a    a    a    a    a    a    a   
a    a    a    a    a    a    a    a    a    a   

 Integral file          = ./H2.aoints.0
 Record size in doubles =  65536        No. of integs per rec  =  43688
 Max. records in memory =     99        Max. records in file   = 280224
 No. of bits per label  =      8        No. of bits per value  =     64


 #quartets = 1.756D+04 #integrals = 4.207D+05 #direct =  0.0% #cached =100.0%




          %%%%% MacroIteration   1 %%%%%


          Number of sigma calls:       15
                       o<<<<< (aa):             0.00
                       o<<<<< (bb):             0.00
                       o<<<<< (ab):             0.00
                       o<<<<< (total)           0.00
                       o<<<<< (aa) ff           0.00
                       o<<<<< (aa) gop          0.00
                       o<<<<< (aa) dot          0.00
                       o<<<<< (ab) str          0.00
                       o<<<<< (ab) gath         0.00
                       o<<<<< (ab) dotab        0.00
                       o<<<<< (ab) scat         0.00
                       o<<<<< (ab) sync         0.00
                       o<<<<< Density           0.00
                       o<<<<< Density one       0.00
                       o<<<<< Density two       0.00
                       o<<<<< Density ab        0.00
                       o<<<<< Spin adapt        0.00
                       o<<<<< Symm adapt        0.00

                       o<<<<< (ab) max sync:      0.00

           >>>| Valence CI:             -1.165839802111
           >>>| MCSCF energy:           -1.000550545913
           >>>| Gradient norm:          0.411074977D-03
     --- Warning:  480 Hessian diagonals < 0.05 ---

                              ----- Line search ------

        step       energy         lsg     num-lsg   num-lsh   lsrat    time
      ------- ---------------- --------- --------- --------- ------- --------
       0.0000      -1.00055055 -3.90D-08  0.00D+00  0.00D+00 0.0D+00      0.3

          Number of sigma calls:        9
                       o<<<<< (aa):             0.00
                       o<<<<< (bb):             0.00
                       o<<<<< (ab):             0.01
                       o<<<<< (total)           0.01
                       o<<<<< (aa) ff           0.00
                       o<<<<< (aa) gop          0.00
                       o<<<<< (aa) dot          0.00
                       o<<<<< (ab) str          0.00
                       o<<<<< (ab) gath         0.00
                       o<<<<< (ab) dotab        0.00
                       o<<<<< (ab) scat         0.00
                       o<<<<< (ab) sync         0.00
                       o<<<<< Density           0.00
                       o<<<<< Density one       0.00
                       o<<<<< Density two       0.00
                       o<<<<< Density ab        0.00
                       o<<<<< Spin adapt        0.00
                       o<<<<< Symm adapt        0.00

                       o<<<<< (ab) max sync:      0.00
       1.0000      -1.00055057 -1.30D-08 -1.30D-08  2.59D-08 3.3D-01      0.4

          Number of sigma calls:        8
                       o<<<<< (aa):             0.00
                       o<<<<< (bb):             0.00
                       o<<<<< (ab):             0.01
                       o<<<<< (total)           0.01
                       o<<<<< (aa) ff           0.00
                       o<<<<< (aa) gop          0.00
                       o<<<<< (aa) dot          0.00
                       o<<<<< (ab) str          0.00
                       o<<<<< (ab) gath         0.00
                       o<<<<< (ab) dotab        0.00
                       o<<<<< (ab) scat         0.00
                       o<<<<< (ab) sync         0.00
                       o<<<<< Density           0.00
                       o<<<<< Density one       0.00
                       o<<<<< Density two       0.00
                       o<<<<< Density ab        0.00
                       o<<<<< Spin adapt        0.00
                       o<<<<< Symm adapt        0.00

                       o<<<<< (ab) max sync:      0.00
       1.5020      -1.00055058  5.53D-12  5.47D-12  2.59D-08 1.4D-04      0.6
     --- Orbitals canonicalized ---



          %%%%% MacroIteration   2 %%%%%


          Number of sigma calls:       15
                       o<<<<< (aa):             0.00
                       o<<<<< (bb):             0.00
                       o<<<<< (ab):             0.01
                       o<<<<< (total)           0.02
                       o<<<<< (aa) ff           0.00
                       o<<<<< (aa) gop          0.00
                       o<<<<< (aa) dot          0.00
                       o<<<<< (ab) str          0.00
                       o<<<<< (ab) gath         0.00
                       o<<<<< (ab) dotab        0.00
                       o<<<<< (ab) scat         0.00
                       o<<<<< (ab) sync         0.00
                       o<<<<< Density           0.00
                       o<<<<< Density one       0.00
                       o<<<<< Density two       0.00
                       o<<<<< Density ab        0.00
                       o<<<<< Spin adapt        0.00
                       o<<<<< Symm adapt        0.00

                       o<<<<< (ab) max sync:      0.00

           >>>| Valence CI:             -1.165839831369
           >>>| MCSCF energy:           -1.000550575171
           >>>| Gradient norm:          0.965344794D-04




     ==============================
            MCSCF Converged
     ==============================



          Canonical Eigenvalues

              1      
    1   -0.2744
    2   -0.2255
    3   -0.0001
    4   -0.0000
    5   -0.0000
    6   -0.0000
    7   -0.0000
    8   -0.0000
    9   -0.0000
   10   -0.0000
   11    0.4303
   12    0.6490
   13    0.8211
   14    1.1476
   15    1.1476
   16    1.7587
   17    1.8189
   18    1.8189
   19    1.8643
   20    2.0409
   21    2.0409
   22    2.0614
   23    2.0614
   24    2.0900
   25    2.0900
   26    2.0902
   27    2.0902
   28    2.1504
   29    2.8713
   30    2.9756
   31    4.3851
   32    4.3851
   33    4.3901
   34    4.4327
   35    4.4327
   36    4.5443
   37    5.9432
   38    6.0554
   39    6.0554
   40    6.0604
   41    6.0689
   42    6.0689
   43    6.0701
   44    6.0701
   45    6.0701
   46    6.0701
   47    6.0701
   48    6.0701
   49    6.0701
   50    6.0701
   51    8.1251
   52    8.1349
   53    8.1349
   54    8.1409
   55    8.1409
   56    8.1418
   57    8.1418
   58    8.1419
   59    8.1419
   60    8.1434
   61    9.6329
   62    9.6722
   63    9.6972
   64    9.7127
   65    9.7127
   66    9.7185
   67    9.7185
   68    9.7819
   69   22.2000
   70   22.6845


          Converged CI vector

   Index           Coefficient          Config. Occupation
         1          0.74690465          1  1
        12         -0.66484904          2  2

          Number of sigma calls:        1
                       o<<<<< (aa):             0.00
                       o<<<<< (bb):             0.00
                       o<<<<< (ab):             0.00
                       o<<<<< (total)           0.00
                       o<<<<< (aa) ff           0.00
                       o<<<<< (aa) gop          0.00
                       o<<<<< (aa) dot          0.00
                       o<<<<< (ab) str          0.00
                       o<<<<< (ab) gath         0.00
                       o<<<<< (ab) dotab        0.00
                       o<<<<< (ab) scat         0.00
                       o<<<<< (ab) sync         0.00
                       o<<<<< Density           0.00
                       o<<<<< Density one       0.00
                       o<<<<< Density two       0.00
                       o<<<<< Density ab        0.00
                       o<<<<< Spin adapt        0.00
                       o<<<<< Symm adapt        0.00

                       o<<<<< (ab) max sync:      0.00



          Natural orbital occupation numbers

              1      
    1    1.1157
    2    0.8840
    3    0.0001
    4    0.0000
    5    0.0000
    6    0.0000
    7    0.0000
    8    0.0000
    9    0.0000
   10    0.0000


          Number of sigma calls:       15
                       o<<<<< (aa):             0.00
                       o<<<<< (bb):             0.00
                       o<<<<< (ab):             0.01
                       o<<<<< (total)           0.02
                       o<<<<< (aa) ff           0.00
                       o<<<<< (aa) gop          0.00
                       o<<<<< (aa) dot          0.00
                       o<<<<< (ab) str          0.00
                       o<<<<< (ab) gath         0.00
                       o<<<<< (ab) dotab        0.00
                       o<<<<< (ab) scat         0.00
                       o<<<<< (ab) sync         0.00
                       o<<<<< Density           0.00
                       o<<<<< Density one       0.00
                       o<<<<< Density two       0.00
                       o<<<<< Density ab        0.00
                       o<<<<< Spin adapt        0.00
                       o<<<<< Symm adapt        0.00

                       o<<<<< (ab) max sync:      0.00


       Final MCSCF results 
       ------------------- 

       Total MCSCF energy =     -1.000550575171
            Gradient norm =      9.7D-05

    CPU time for solution =      1.0s
   Wall time for solution =      1.4s



                        Analysis of MCSCF natural orbitals
                        ----------------------------------

 Vector    1  Occ=1.115734D+00  E=-2.743727D-01  Symmetry=a
              MO Center=  6.0D-15,  4.7D-12, -3.9D-15, r^2= 3.3D+00
   Bfn.  Coefficient  Atom+Function         Bfn.  Coefficient  Atom+Function  
  ----- ------------  ---------------      ----- ------------  ---------------
     3      0.338249  1 H  s                 38      0.338249  2 H  s          
     4      0.209773  1 H  s                 39      0.209773  2 H  s          
     2      0.175589  1 H  s                 37      0.175589  2 H  s          

 Vector    2  Occ=8.840485D-01  E=-2.254764D-01  Symmetry=a
              MO Center=  2.6D-14, -4.4D-12, -1.7D-14, r^2= 3.5D+00
   Bfn.  Coefficient  Atom+Function         Bfn.  Coefficient  Atom+Function  
  ----- ------------  ---------------      ----- ------------  ---------------
     3      0.362358  1 H  s                 38     -0.362358  2 H  s          
     4      0.209793  1 H  s                 39     -0.209793  2 H  s          
     2      0.184707  1 H  s                 37     -0.184707  2 H  s          

 Vector    3  Occ=1.391198D-04  E=-7.356912D-05  Symmetry=a
              MO Center=  6.9D-14,  3.2D-09, -4.5D-14, r^2= 3.7D+00
   Bfn.  Coefficient  Atom+Function         Bfn.  Coefficient  Atom+Function  
  ----- ------------  ---------------      ----- ------------  ---------------
     9      1.587121  1 H  py                44     -1.587121  2 H  py         
    12     -0.958791  1 H  py                47      0.958791  2 H  py         
    32     -0.669442  1 H  fyyy              67      0.669442  2 H  fyyy       
    27     -0.650886  1 H  fxxy              34     -0.650886  1 H  fyzz       
    62      0.650886  2 H  fxxy              69      0.650886  2 H  fyzz       

 Vector    4  Occ=3.821528D-05  E=-2.185520D-05  Symmetry=a
              MO Center=  8.1D-15, -1.9D-11, -7.2D-14, r^2= 3.5D+00
   Bfn.  Coefficient  Atom+Function         Bfn.  Coefficient  Atom+Function  
  ----- ------------  ---------------      ----- ------------  ---------------
    10      1.525515  1 H  pz                45      1.525515  2 H  pz         
    13     -0.940241  1 H  pz                48     -0.940241  2 H  pz         
    33     -0.675194  1 H  fyyz              68     -0.675194  2 H  fyyz       
    28     -0.642365  1 H  fxxz              35     -0.642365  1 H  fzzz       
    63     -0.642365  2 H  fxxz              70     -0.642365  2 H  fzzz       

 Vector    5  Occ=3.821528D-05  E=-2.185520D-05  Symmetry=a
              MO Center= -2.9D-13, -1.8D-11, -3.7D-14, r^2= 3.5D+00
   Bfn.  Coefficient  Atom+Function         Bfn.  Coefficient  Atom+Function  
  ----- ------------  ---------------      ----- ------------  ---------------
     8      1.525515  1 H  px                43      1.525515  2 H  px         
    11     -0.940241  1 H  px                46     -0.940241  2 H  px         
    29     -0.675194  1 H  fxyy              64     -0.675194  2 H  fxyy       
    26     -0.642365  1 H  fxxx              31     -0.642365  1 H  fxzz       
    61     -0.642365  2 H  fxxx              66     -0.642365  2 H  fxzz       

 Vector    6  Occ=9.367842D-07  E=-6.221431D-07  Symmetry=a
              MO Center=  2.4D-13, -1.4D-09,  1.5D-13, r^2= 3.3D+00
   Bfn.  Coefficient  Atom+Function         Bfn.  Coefficient  Atom+Function  
  ----- ------------  ---------------      ----- ------------  ---------------
     9      1.100733  1 H  py                44     -1.100733  2 H  py         
     2      0.607192  1 H  s                 37      0.607192  2 H  s          
     4     -0.516933  1 H  s                 39     -0.516933  2 H  s          
    27     -0.451082  1 H  fxxy              34     -0.451082  1 H  fyzz       
    62      0.451082  2 H  fxxy              69      0.451082  2 H  fyzz       

 Vector    7  Occ=3.486238D-07  E=-3.294863D-07  Symmetry=a
              MO Center= -1.3D-12,  4.0D-09,  7.9D-13, r^2= 2.7D+00
   Bfn.  Coefficient  Atom+Function         Bfn.  Coefficient  Atom+Function  
  ----- ------------  ---------------      ----- ------------  ---------------
     9      1.449479  1 H  py                44      1.449479  2 H  py         
     3     -0.944531  1 H  s                 38      0.944531  2 H  s          
     2      0.854768  1 H  s                 37     -0.854768  2 H  s          
    27     -0.529341  1 H  fxxy              34     -0.529341  1 H  fyzz       
    62     -0.529341  2 H  fxxy              69     -0.529341  2 H  fyzz       

 Vector    8  Occ=1.637706D-07  E=-2.011994D-07  Symmetry=a
              MO Center= -1.2D-14,  2.7D-09, -4.0D-15, r^2= 3.3D+00
   Bfn.  Coefficient  Atom+Function         Bfn.  Coefficient  Atom+Function  
  ----- ------------  ---------------      ----- ------------  ---------------
     9      3.072578  1 H  py                44     -3.072578  2 H  py         
    27     -1.352563  1 H  fxxy              34     -1.352563  1 H  fyzz       
    62      1.352563  2 H  fxxy              69      1.352563  2 H  fyzz       
    32     -1.048490  1 H  fyyy              67      1.048490  2 H  fyyy       
     6     -0.758817  1 H  py                41      0.758817  2 H  py         

 Vector    9  Occ=5.668246D-08  E=-5.155647D-08  Symmetry=a
              MO Center=  1.1D-12,  7.2D-12, -7.3D-14, r^2= 2.5D+00
   Bfn.  Coefficient  Atom+Function         Bfn.  Coefficient  Atom+Function  
  ----- ------------  ---------------      ----- ------------  ---------------
     8      1.429527  1 H  px                43     -1.429527  2 H  px         
    26     -0.467784  1 H  fxxx              31     -0.467784  1 H  fxzz       
    61      0.467784  2 H  fxxx              66      0.467784  2 H  fxzz       
    21      0.383882  1 H  dxy               56      0.383882  2 H  dxy        
    29     -0.344190  1 H  fxyy              64      0.344190  2 H  fxyy       

 Vector   10  Occ=5.668246D-08  E=-5.155647D-08  Symmetry=a
              MO Center= -3.8D-14,  7.7D-12, -6.1D-13, r^2= 2.5D+00
   Bfn.  Coefficient  Atom+Function         Bfn.  Coefficient  Atom+Function  
  ----- ------------  ---------------      ----- ------------  ---------------
    10      1.429527  1 H  pz                45     -1.429527  2 H  pz         
    28     -0.467784  1 H  fxxz              35     -0.467784  1 H  fzzz       
    63      0.467784  2 H  fxxz              70      0.467784  2 H  fzzz       
    24      0.383882  1 H  dyz               59      0.383882  2 H  dyz        
    33     -0.344190  1 H  fyyz              68      0.344190  2 H  fyyz       

 Vector   11  Occ=0.000000D+00  E= 4.303014D-01  Symmetry=a
              MO Center=  2.4D-12,  3.9D-09, -1.5D-12, r^2= 8.6D+00
   Bfn.  Coefficient  Atom+Function         Bfn.  Coefficient  Atom+Function  
  ----- ------------  ---------------      ----- ------------  ---------------
     3      2.854408  1 H  s                 38     -2.854408  2 H  s          
     4     -1.773306  1 H  s                 39      1.773306  2 H  s          
     9     -0.890820  1 H  py                44     -0.890820  2 H  py         
     2     -0.711300  1 H  s                 37      0.711300  2 H  s          
    23     -0.414808  1 H  dyy               58      0.414808  2 H  dyy        

 Vector   12  Occ=0.000000D+00  E= 6.489928D-01  Symmetry=a
              MO Center= -1.4D-12,  6.3D-10,  8.9D-13, r^2= 5.1D+00
   Bfn.  Coefficient  Atom+Function         Bfn.  Coefficient  Atom+Function  
  ----- ------------  ---------------      ----- ------------  ---------------
     3      1.525001  1 H  s                 38     -1.525001  2 H  s          
     9      1.407904  1 H  py                44      1.407904  2 H  py         
    12     -1.000473  1 H  py                47     -1.000473  2 H  py         
     4     -0.976110  1 H  s                 39      0.976110  2 H  s          
    27     -0.567453  1 H  fxxy              32     -0.568387  1 H  fyyy       

 Vector   13  Occ=0.000000D+00  E= 8.210618D-01  Symmetry=a
              MO Center=  1.2D-14, -1.7D-08, -6.2D-15, r^2= 6.9D+00
   Bfn.  Coefficient  Atom+Function         Bfn.  Coefficient  Atom+Function  
  ----- ------------  ---------------      ----- ------------  ---------------
     3      3.967160  1 H  s                 38      3.967160  2 H  s          
     4     -1.589169  1 H  s                 39     -1.589169  2 H  s          
     2     -1.254397  1 H  s                 37     -1.254397  2 H  s          
    23     -0.642750  1 H  dyy               58     -0.642750  2 H  dyy        
    20     -0.623769  1 H  dxx               25     -0.623769  1 H  dzz        

 Vector   14  Occ=0.000000D+00  E= 1.147598D+00  Symmetry=a
              MO Center=  6.1D-13, -2.3D-11, -6.1D-14, r^2= 4.9D+00
   Bfn.  Coefficient  Atom+Function         Bfn.  Coefficient  Atom+Function  
  ----- ------------  ---------------      ----- ------------  ---------------
     8      4.914122  1 H  px                43     -4.914122  2 H  px         
    26     -1.908453  1 H  fxxx              31     -1.908453  1 H  fxzz       
    61      1.908453  2 H  fxxx              66      1.908453  2 H  fxzz       
    29     -1.890212  1 H  fxyy              64      1.890212  2 H  fxyy       
    11     -1.483747  1 H  px                46      1.483747  2 H  px         

 Vector   15  Occ=0.000000D+00  E= 1.147598D+00  Symmetry=a
              MO Center= -2.7D-14, -2.2D-11, -2.6D-13, r^2= 4.9D+00
   Bfn.  Coefficient  Atom+Function         Bfn.  Coefficient  Atom+Function  
  ----- ------------  ---------------      ----- ------------  ---------------
    10      4.914122  1 H  pz                45     -4.914122  2 H  pz         
    28     -1.908453  1 H  fxxz              35     -1.908453  1 H  fzzz       
    63      1.908453  2 H  fxxz              70      1.908453  2 H  fzzz       
    33     -1.890212  1 H  fyyz              68      1.890212  2 H  fyyz       
    13     -1.483747  1 H  pz                48      1.483747  2 H  pz         

 Vector   16  Occ=0.000000D+00  E= 1.758700D+00  Symmetry=a
              MO Center= -1.1D-12,  5.7D-09,  6.5D-13, r^2= 4.7D+00
   Bfn.  Coefficient  Atom+Function         Bfn.  Coefficient  Atom+Function  
  ----- ------------  ---------------      ----- ------------  ---------------
     9      4.620431  1 H  py                44      4.620431  2 H  py         
     3      2.182601  1 H  s                 38     -2.182601  2 H  s          
    27     -1.781350  1 H  fxxy              34     -1.781350  1 H  fyzz       
    62     -1.781350  2 H  fxxy              69     -1.781350  2 H  fyzz       
    32     -1.771157  1 H  fyyy              67     -1.771157  2 H  fyyy       

 Vector   17  Occ=0.000000D+00  E= 1.818916D+00  Symmetry=a
              MO Center= -8.1D-14,  5.3D-11,  4.3D-14, r^2= 3.8D+00
   Bfn.  Coefficient  Atom+Function         Bfn.  Coefficient  Atom+Function  
  ----- ------------  ---------------      ----- ------------  ---------------
     8      5.480046  1 H  px                43      5.480046  2 H  px         
    10     -2.971335  1 H  pz                45     -2.971335  2 H  pz         
    26     -2.141131  1 H  fxxx              29     -2.140692  1 H  fxyy       
    31     -2.141131  1 H  fxzz              61     -2.141131  2 H  fxxx       
    64     -2.140692  2 H  fxyy              66     -2.141131  2 H  fxzz       

 Vector   18  Occ=0.000000D+00  E= 1.818916D+00  Symmetry=a
              MO Center=  6.8D-16,  5.2D-11,  6.6D-15, r^2= 3.8D+00
   Bfn.  Coefficient  Atom+Function         Bfn.  Coefficient  Atom+Function  
  ----- ------------  ---------------      ----- ------------  ---------------
    10      5.480046  1 H  pz                45      5.480046  2 H  pz         
     8      2.971335  1 H  px                43      2.971335  2 H  px         
    28     -2.141131  1 H  fxxz              33     -2.140692  1 H  fyyz       
    35     -2.141131  1 H  fzzz              63     -2.141131  2 H  fxxz       
    68     -2.140692  2 H  fyyz              70     -2.141131  2 H  fzzz       

 Vector   19  Occ=0.000000D+00  E= 1.864267D+00  Symmetry=a
              MO Center=  1.2D-14, -2.4D-09, -8.5D-15, r^2= 4.3D+00
   Bfn.  Coefficient  Atom+Function         Bfn.  Coefficient  Atom+Function  
  ----- ------------  ---------------      ----- ------------  ---------------
     9      4.621720  1 H  py                44     -4.621720  2 H  py         
    32     -1.824137  1 H  fyyy              67      1.824137  2 H  fyyy       
    27     -1.811102  1 H  fxxy              34     -1.811102  1 H  fyzz       
    62      1.811102  2 H  fxxy              69      1.811102  2 H  fyzz       
     6     -1.227581  1 H  py                41      1.227581  2 H  py         

 Vector   20  Occ=0.000000D+00  E= 2.040861D+00  Symmetry=a
              MO Center= -8.2D-15, -7.0D-10, -1.6D-15, r^2= 3.9D+00
   Bfn.  Coefficient  Atom+Function         Bfn.  Coefficient  Atom+Function  
  ----- ------------  ---------------      ----- ------------  ---------------
    24      1.293202  1 H  dyz               59     -1.293202  2 H  dyz        
    10     -0.432287  1 H  pz                45     -0.432287  2 H  pz         
    18     -0.178616  1 H  dyz               53      0.178616  2 H  dyz        
    33      0.172586  1 H  fyyz              68      0.172586  2 H  fyyz       
    28      0.170557  1 H  fxxz              35      0.170557  1 H  fzzz       


 Wrote Lagrangian and 1- and 2-particle density matrices to ./H2.mcpdm


     Multipole analysis of the density
     ---------------------------------

     L   x y z        total        nuclear
     -   - - -        -----        -------
     0   0 0 0     -0.000000      2.000000

     1   1 0 0     -0.000000      0.000000
     1   0 1 0     -0.000000      0.000000
     1   0 0 1      0.000000      0.000000

     2   2 0 0     -2.007759      0.000000
     2   1 1 0      0.000000      0.000000
     2   1 0 1     -0.000000      0.000000
     2   0 2 0     -1.933799     18.301250
     2   0 1 1     -0.000000      0.000000
     2   0 0 2     -2.007759      0.000000


  Mulliken analysis of the total density
  --------------------------------------

    Atom       Charge   Shell Charges
 -----------   ------   -------------------------------------------------------
    1 H    1     1.00   0.05  0.22  0.48  0.25  0.00 -0.00  0.00  0.00  0.00  0.00
    2 H    1     1.00   0.05  0.22  0.48  0.25  0.00 -0.00  0.00  0.00  0.00  0.00

    Mulliken analysis of the active space density
    ---------------------------------------------

    Atom       Charge   Shell Charges
 -----------   ------   -------------------------------------------------------
    1 H    1     1.00   0.05  0.22  0.48  0.25  0.00 -0.00  0.00  0.00  0.00  0.00
    2 H    1     1.00   0.05  0.22  0.48  0.25  0.00 -0.00  0.00  0.00  0.00  0.00

 Parallel integral file used      10 records with       0 large values


 Task  times  cpu:        1.0s     wall:        1.4s


                                NWChem Input Module
                                -------------------


                                 NWChem SCF Module
                                 -----------------


                                        H2



  ao basis        = "ao basis"
  functions       =    70
  atoms           =     2
  closed shells   =     1
  open shells     =     0
  charge          =   0.00
  wavefunction    = RHF 
  input vectors   = ./H2.mos
  output vectors  = ./H2-6.05.mos
  use symmetry    = F
  symmetry adapt  = F


 Summary of "ao basis" -> "ao basis" (cartesian)
 ------------------------------------------------------------------------------
       Tag                 Description            Shells   Functions and Types
 ---------------- ------------------------------  ------  ---------------------
 H                          cc-pVQZ                 10       35   4s3p2d1f



 Forming initial guess at       1.5s


 Loading old vectors from job with title :

H2


 Starting SCF solution at       1.5s



 ----------------------------------------------
         Quadratically convergent ROHF

 Convergence threshold     :          1.000E-04
 Maximum no. of iterations :           30
 Final Fock-matrix accuracy:          1.000E-07
 ----------------------------------------------


 Integral file          = ./H2.aoints.0
 Record size in doubles =  65536        No. of integs per rec  =  43688
 Max. records in memory =     99        Max. records in file   = 280260
 No. of bits per label  =      8        No. of bits per value  =     64


 #quartets = 1.603D+04 #integrals = 3.520D+05 #direct =  0.0% #cached =100.0%



       Final RHF  results 
       ------------------ 

         Total SCF energy =     -0.794654132512
      One-electron energy =     -1.348030538044
      Two-electron energy =      0.388087149333
 Nuclear repulsion energy =      0.165289256198

        Time for solution =      0.0s


             Final eigenvalues
             -----------------

              1      
    1   -0.2744
    2   -0.2255
    3   -0.0001
    4   -0.0000
    5   -0.0000
    6   -0.0000
    7   -0.0000
    8   -0.0000
    9   -0.0000
   10   -0.0000
   11    0.4303

                       ROHF Final Molecular Orbital Analysis
                       -------------------------------------

 Vector    1  Occ=2.000000D+00  E=-2.743727D-01
              MO Center=  6.0D-15,  4.7D-12, -3.9D-15, r^2= 3.3D+00
   Bfn.  Coefficient  Atom+Function         Bfn.  Coefficient  Atom+Function  
  ----- ------------  ---------------      ----- ------------  ---------------
     3      0.338249  1 H  s                 38      0.338249  2 H  s          
     4      0.209773  1 H  s                 39      0.209773  2 H  s          
     2      0.175589  1 H  s                 37      0.175589  2 H  s          

 Vector    2  Occ=0.000000D+00  E=-2.254764D-01
              MO Center=  2.6D-14, -4.4D-12, -1.7D-14, r^2= 3.5D+00
   Bfn.  Coefficient  Atom+Function         Bfn.  Coefficient  Atom+Function  
  ----- ------------  ---------------      ----- ------------  ---------------
     3      0.362358  1 H  s                 38     -0.362358  2 H  s          
     4      0.209793  1 H  s                 39     -0.209793  2 H  s          
     2      0.184707  1 H  s                 37     -0.184707  2 H  s          

 Vector    3  Occ=0.000000D+00  E=-7.356912D-05
              MO Center=  6.9D-14,  3.2D-09, -4.5D-14, r^2= 3.7D+00
   Bfn.  Coefficient  Atom+Function         Bfn.  Coefficient  Atom+Function  
  ----- ------------  ---------------      ----- ------------  ---------------
     9      1.587121  1 H  py                44     -1.587121  2 H  py         
    12     -0.958791  1 H  py                47      0.958791  2 H  py         
    32     -0.669442  1 H  fyyy              67      0.669442  2 H  fyyy       
    27     -0.650886  1 H  fxxy              34     -0.650886  1 H  fyzz       
    62      0.650886  2 H  fxxy              69      0.650886  2 H  fyzz       

 Vector    4  Occ=0.000000D+00  E=-2.185520D-05
              MO Center=  8.1D-15, -1.9D-11, -7.2D-14, r^2= 3.5D+00
   Bfn.  Coefficient  Atom+Function         Bfn.  Coefficient  Atom+Function  
  ----- ------------  ---------------      ----- ------------  ---------------
    10      1.525515  1 H  pz                45      1.525515  2 H  pz         
    13     -0.940241  1 H  pz                48     -0.940241  2 H  pz         
    33     -0.675194  1 H  fyyz              68     -0.675194  2 H  fyyz       
    28     -0.642365  1 H  fxxz              35     -0.642365  1 H  fzzz       
    63     -0.642365  2 H  fxxz              70     -0.642365  2 H  fzzz       

 Vector    5  Occ=0.000000D+00  E=-2.185520D-05
              MO Center= -2.9D-13, -1.8D-11, -3.7D-14, r^2= 3.5D+00
   Bfn.  Coefficient  Atom+Function         Bfn.  Coefficient  Atom+Function  
  ----- ------------  ---------------      ----- ------------  ---------------
     8      1.525515  1 H  px                43      1.525515  2 H  px         
    11     -0.940241  1 H  px                46     -0.940241  2 H  px         
    29     -0.675194  1 H  fxyy              64     -0.675194  2 H  fxyy       
    26     -0.642365  1 H  fxxx              31     -0.642365  1 H  fxzz       
    61     -0.642365  2 H  fxxx              66     -0.642365  2 H  fxzz       

 Vector    6  Occ=0.000000D+00  E=-6.221431D-07
              MO Center=  2.4D-13, -1.4D-09,  1.5D-13, r^2= 3.3D+00
   Bfn.  Coefficient  Atom+Function         Bfn.  Coefficient  Atom+Function  
  ----- ------------  ---------------      ----- ------------  ---------------
     9      1.100733  1 H  py                44     -1.100733  2 H  py         
     2      0.607192  1 H  s                 37      0.607192  2 H  s          
     4     -0.516933  1 H  s                 39     -0.516933  2 H  s          
    27     -0.451082  1 H  fxxy              34     -0.451082  1 H  fyzz       
    62      0.451082  2 H  fxxy              69      0.451082  2 H  fyzz       

 Vector    7  Occ=0.000000D+00  E=-3.294863D-07
              MO Center= -1.3D-12,  4.0D-09,  7.9D-13, r^2= 2.7D+00
   Bfn.  Coefficient  Atom+Function         Bfn.  Coefficient  Atom+Function  
  ----- ------------  ---------------      ----- ------------  ---------------
     9      1.449479  1 H  py                44      1.449479  2 H  py         
     3     -0.944531  1 H  s                 38      0.944531  2 H  s          
     2      0.854768  1 H  s                 37     -0.854768  2 H  s          
    27     -0.529341  1 H  fxxy              34     -0.529341  1 H  fyzz       
    62     -0.529341  2 H  fxxy              69     -0.529341  2 H  fyzz       

 Vector    8  Occ=0.000000D+00  E=-2.011994D-07
              MO Center= -1.2D-14,  2.7D-09, -4.0D-15, r^2= 3.3D+00
   Bfn.  Coefficient  Atom+Function         Bfn.  Coefficient  Atom+Function  
  ----- ------------  ---------------      ----- ------------  ---------------
     9      3.072578  1 H  py                44     -3.072578  2 H  py         
    27     -1.352563  1 H  fxxy              34     -1.352563  1 H  fyzz       
    62      1.352563  2 H  fxxy              69      1.352563  2 H  fyzz       
    32     -1.048490  1 H  fyyy              67      1.048490  2 H  fyyy       
     6     -0.758817  1 H  py                41      0.758817  2 H  py         

 Vector    9  Occ=0.000000D+00  E=-5.155647D-08
              MO Center=  1.1D-12,  7.2D-12, -7.3D-14, r^2= 2.5D+00
   Bfn.  Coefficient  Atom+Function         Bfn.  Coefficient  Atom+Function  
  ----- ------------  ---------------      ----- ------------  ---------------
     8      1.429527  1 H  px                43     -1.429527  2 H  px         
    26     -0.467784  1 H  fxxx              31     -0.467784  1 H  fxzz       
    61      0.467784  2 H  fxxx              66      0.467784  2 H  fxzz       
    21      0.383882  1 H  dxy               56      0.383882  2 H  dxy        
    29     -0.344190  1 H  fxyy              64      0.344190  2 H  fxyy       

 Vector   10  Occ=0.000000D+00  E=-5.155647D-08
              MO Center= -3.8D-14,  7.7D-12, -6.1D-13, r^2= 2.5D+00
   Bfn.  Coefficient  Atom+Function         Bfn.  Coefficient  Atom+Function  
  ----- ------------  ---------------      ----- ------------  ---------------
    10      1.429527  1 H  pz                45     -1.429527  2 H  pz         
    28     -0.467784  1 H  fxxz              35     -0.467784  1 H  fzzz       
    63      0.467784  2 H  fxxz              70      0.467784  2 H  fzzz       
    24      0.383882  1 H  dyz               59      0.383882  2 H  dyz        
    33     -0.344190  1 H  fyyz              68      0.344190  2 H  fyyz       

 Vector   11  Occ=0.000000D+00  E= 4.303014D-01
              MO Center=  2.4D-12,  3.9D-09, -1.5D-12, r^2= 8.6D+00
   Bfn.  Coefficient  Atom+Function         Bfn.  Coefficient  Atom+Function  
  ----- ------------  ---------------      ----- ------------  ---------------
     3      2.854408  1 H  s                 38     -2.854408  2 H  s          
     4     -1.773306  1 H  s                 39      1.773306  2 H  s          
     9     -0.890820  1 H  py                44     -0.890820  2 H  py         
     2     -0.711300  1 H  s                 37      0.711300  2 H  s          
    23     -0.414808  1 H  dyy               58      0.414808  2 H  dyy        

 Vector   12  Occ=0.000000D+00  E= 6.489928D-01
              MO Center= -1.4D-12,  6.3D-10,  8.9D-13, r^2= 5.1D+00
   Bfn.  Coefficient  Atom+Function         Bfn.  Coefficient  Atom+Function  
  ----- ------------  ---------------      ----- ------------  ---------------
     3      1.525001  1 H  s                 38     -1.525001  2 H  s          
     9      1.407904  1 H  py                44      1.407904  2 H  py         
    12     -1.000473  1 H  py                47     -1.000473  2 H  py         
     4     -0.976110  1 H  s                 39      0.976110  2 H  s          
    27     -0.567453  1 H  fxxy              32     -0.568387  1 H  fyyy       


 center of mass
 --------------
 x =   0.00000000 y =   0.00000000 z =   0.00000000

 moments of inertia (a.u.)
 ------------------
          18.444457281250           0.000000000000           0.000000000000
           0.000000000000           0.000000000000           0.000000000000
           0.000000000000           0.000000000000          18.444457281250

  Mulliken analysis of the total density
  --------------------------------------

    Atom       Charge   Shell Charges
 -----------   ------   -------------------------------------------------------
    1 H    1     1.00   0.04  0.21  0.47  0.27  0.00 -0.00 -0.00  0.00  0.00  0.00
    2 H    1     1.00   0.04  0.21  0.47  0.27  0.00 -0.00 -0.00  0.00  0.00  0.00

       Multipole analysis of the density wrt the origin
       ------------------------------------------------

     L   x y z        total         open         nuclear
     -   - - -        -----         ----         -------
     0   0 0 0     -0.000000      0.000000      2.000000

     1   1 0 0     -0.000000      0.000000      0.000000
     1   0 1 0     -0.000000      0.000000      0.000000
     1   0 0 1      0.000000      0.000000      0.000000

     2   2 0 0     -2.090081      0.000000      0.000000
     2   1 1 0     -0.000000      0.000000      0.000000
     2   1 0 1      0.000000      0.000000      0.000000
     2   0 2 0     -1.435045      0.000000     18.301250
     2   0 1 1      0.000000      0.000000      0.000000
     2   0 0 2     -2.090081      0.000000      0.000000


 Parallel integral file used       9 records with       0 large values

 ------------------------------------
     Number of active orbitals     10
     Number of active alpha electrons      1
     Number of active beta electrons       1
 ------------------------------------
                   NWChem Extensible Many-Electron Theory Module
                   ---------------------------------------------

              ======================================================
                   This portion of the program was automatically
                  generated by a Tensor Contraction Engine (TCE).
                  The development of this portion of the program
                 and TCE was supported by US Department of Energy,
                Office of Science, Office of Basic Energy Science.
                      TCE is a product of Battelle and PNNL.
              Please cite: S.Hirata, J.Phys.Chem.A 107, 9887 (2003).
              ======================================================

                                        H2


            General Information
            -------------------
      Number of processors :     1
         Wavefunction type : Restricted Hartree-Fock
          No. of electrons :     2
           Alpha electrons :     1
            Beta electrons :     1
           No. of orbitals :   140
            Alpha orbitals :    70
             Beta orbitals :    70
        Alpha frozen cores :     0
         Beta frozen cores :     0
     Alpha frozen virtuals :    60
      Beta frozen virtuals :    60
         Spin multiplicity : singlet 
    Number of AO functions :    70
       Number of AO shells :    20
        Use of symmetry is : off
      Symmetry adaption is : off
         Schwarz screening : 0.10D-09

          Correlation Information
          -----------------------
          Calculation type : Coupled-cluster singles & doubles                           
   Perturbative correction : none                                                        
            Max iterations :      300
        Residual threshold : 0.10D-06
     T(0) DIIS level shift : 0.00D+00
     L(0) DIIS level shift : 0.00D+00
     T(1) DIIS level shift : 0.00D+00
     L(1) DIIS level shift : 0.00D+00
     T(R) DIIS level shift : 0.00D+00
     T(I) DIIS level shift : 0.00D+00
   CC-T/L Amplitude update :  5-th order DIIS
                I/O scheme : Global Array Library
        L-threshold :  0.10D-06
        EOM-threshold :  0.10D-06
 no EOMCCSD initial starts read in
 TCE RESTART OPTIONS
 READ_INT:   F
 WRITE_INT:  F
 READ_TA:    F
 WRITE_TA:   F
 READ_XA:    F
 WRITE_XA:   F
 READ_IN3:   F
 WRITE_IN3:  F
 SLICE:      F
 D4D5:       F
 quantumc:   T
 qrotation:  F
 pwtce:      F
 qducc:      F
 nacto:                         0
 nrotv:                         0
 nrot:                          0

            Memory Information
            ------------------
          Available GA space size is    1610607836 doubles
          Available MA space size is    1610610644 doubles

 Maximum block size supplied by input
 Maximum block size         1 doubles

 tile_dim =      1

 Block   Spin    Irrep     Size     Offset   Alpha
 -------------------------------------------------
   1    alpha     a      1 doubles       0       1
   2    beta      a      1 doubles       1       1
   3    alpha     a      1 doubles       2       3
   4    alpha     a      1 doubles       3       4
   5    alpha     a      1 doubles       4       5
   6    alpha     a      1 doubles       5       6
   7    alpha     a      1 doubles       6       7
   8    alpha     a      1 doubles       7       8
   9    alpha     a      1 doubles       8       9
  10    alpha     a      1 doubles       9      10
  11    alpha     a      1 doubles      10      11
  12    beta      a      1 doubles      11       3
  13    beta      a      1 doubles      12       4
  14    beta      a      1 doubles      13       5
  15    beta      a      1 doubles      14       6
  16    beta      a      1 doubles      15       7
  17    beta      a      1 doubles      16       8
  18    beta      a      1 doubles      17       9
  19    beta      a      1 doubles      18      10
  20    beta      a      1 doubles      19      11

 Global array virtual files algorithm will be used

 Parallel file system coherency ......... OK

 Integral file          = ./H2.aoints.0
 Record size in doubles =  65536        No. of integs per rec  =  43688
 Max. records in memory =     99        Max. records in file   = 280260
 No. of bits per label  =      8        No. of bits per value  =     64


 #quartets = 1.764D+04 #integrals = 4.378D+05 #direct =  0.0% #cached =100.0%


 Fock matrix recomputed
 1-e file size   =              100
 1-e file name   = ./H2.f1
 Cpu & wall time / sec            0.0            0.0
 4-electron integrals stored in orbital form

 v2    file size   =             1540
 4-index algorithm nr.  13 is used
 imaxsize =       30
 imaxsize ichop =        0
 begin_one_electron_integrals
    1    1        -0.6740152690
    3    1         0.0330672481
    6    1        -0.0004566694
    8    1        -0.0011669839
    2    2        -0.6557405991
    7    2        -0.0029902629
    1    3         0.0330672481
    3    3        -0.1060412250
    6    3        -0.0869902404
    7    3         0.0000000004
    8    3        -0.1604340969
    4    4        -0.0220516152
    5    5        -0.0220516152
    1    6        -0.0004566694
    3    6        -0.0869902404
    6    6         0.1543621737
    7    6        -0.0000000015
    8    6         0.2909485239
    2    7        -0.0029902629
    3    7         0.0000000004
    6    7        -0.0000000015
    7    7         0.7244079554
    8    7        -0.0000000020
    1    8        -0.0011669839
    3    8        -0.1604340969
    6    8         0.2909485239
    7    8        -0.0000000020
    8    8         1.4029938033
    9    9         0.6533424705
   10   10         0.6533424705
 end_one_electron_integrals
 begin_two_electron_integrals
    1    1    1    1        0.3880871516
    2    1    2    1        0.2300654149
    3    1    1    1       -0.0143735206
    3    1    3    1        0.0433602804
    3    1    2    2       -0.0101433203
    4    1    4    1        0.0415954466
    5    1    5    1        0.0415954466
    6    1    1    1        0.0859204969
    6    1    3    1       -0.0022590650
    6    1    6    1        0.0653010940
    6    1    2    2        0.0915969809
    6    1    3    3        0.0331617456
    6    1    4    4        0.0328819431
    6    1    5    5        0.0328819431
    7    1    2    1        0.0703516140
    7    1    7    1        0.0653235660
    7    1    3    2       -0.0079257129
    7    1    6    2        0.0654369381
    8    1    1    1       -0.0295779222
    8    1    2    1        0.0000000002
    8    1    3    1       -0.0146204688
    8    1    6    1       -0.0184791570
    8    1    7    1        0.0000000001
    8    1    8    1        0.0329198741
    8    1    2    2       -0.0327675623
    8    1    3    2       -0.0000000001
    8    1    6    2        0.0000000002
    8    1    7    2       -0.0145573378
    8    1    3    3        0.0082403160
    8    1    6    3       -0.0055221302
    8    1    4    4       -0.0111379808
    8    1    5    5       -0.0111379808
    8    1    6    6       -0.0221353395
    8    1    7    6        0.0000000002
    8    1    7    7       -0.0251895353
    9    1    9    1        0.0580466829
    9    1    4    2        0.0083838292
    9    1    5    2       -0.0427729660
    9    1    7    4       -0.0022825240
    9    1    7    5        0.0116450754
   10    1   10    1        0.0580466829
   10    1    4    2       -0.0427729660
   10    1    5    2       -0.0083838292
   10    1    7    4        0.0116450754
   10    1    7    5        0.0022825240
    2    2    1    1        0.3950438155
    2    2    2    2        0.4030457350
    3    2    2    1        0.0211445665
    3    2    3    2        0.0323490293
    4    2    4    2        0.0369267686
    5    2    5    2        0.0369267686
    6    2    2    1        0.0961884387
    6    2    3    2       -0.0015593235
    6    2    6    2        0.0708891196
    7    2    1    1        0.0776017119
    7    2    3    1       -0.0110441829
    7    2    6    1        0.0657534489
    7    2    7    1       -0.0000000001
    7    2    2    2        0.0821323635
    7    2    7    2        0.0708159750
    7    2    3    3        0.0309798361
    7    2    6    3       -0.0084757426
    7    2    4    4        0.0267797075
    7    2    5    5        0.0267797075
    7    2    6    6        0.0827312936
    8    2    1    1        0.0000000003
    8    2    2    1       -0.0348852531
    8    2    3    1       -0.0000000002
    8    2    6    1        0.0000000002
    8    2    7    1       -0.0155176668
    8    2    2    2        0.0000000002
    8    2    3    2       -0.0137107632
    8    2    6    2       -0.0212178326
    8    2    7    2        0.0000000002
    8    2    8    2        0.0342902894
    8    2    3    3        0.0000000002
    8    2    7    3       -0.0026633545
    8    2    4    4        0.0000000002
    8    2    5    5        0.0000000002
    8    2    6    6        0.0000000003
    8    2    7    6       -0.0261542913
    8    2    7    7        0.0000000004
    9    2    4    1        0.0091745247
    9    2    5    1       -0.0468069689
    9    2    9    2        0.0633258536
    9    2    4    3       -0.0016301713
    9    2    5    3        0.0083168751
    9    2    6    4       -0.0015519386
    9    2    8    4       -0.0013632545
    9    2    6    5        0.0079177446
    9    2    8    5        0.0069551080
   10    2    4    1       -0.0468069689
   10    2    5    1       -0.0091745247
   10    2   10    2        0.0633258536
   10    2    4    3        0.0083168751
   10    2    5    3        0.0016301713
   10    2    6    4        0.0079177446
   10    2    8    4        0.0069551080
   10    2    6    5        0.0015519386
   10    2    8    5        0.0013632545
    3    3    1    1        0.3198748281
    3    3    2    1       -0.0000000003
    3    3    3    1       -0.0347660967
    3    3    2    2        0.3189918784
    3    3    3    3        0.3306979559
    4    3    4    1       -0.0072096106
    4    3    4    3        0.0149004779
    5    3    5    1       -0.0072096106
    5    3    5    3        0.0149004779
    6    3    1    1        0.0021398435
    6    3    2    1       -0.0000000001
    6    3    3    1       -0.0101579462
    6    3    6    1       -0.0096304789
    6    3    2    2       -0.0003310391
    6    3    3    3        0.0147548045
    6    3    6    3        0.0167137026
    6    3    4    4        0.0082532342
    6    3    5    5        0.0082532342
    7    3    1    1        0.0000000002
    7    3    2    1       -0.0320220252
    7    3    6    1        0.0000000001
    7    3    7    1       -0.0145285099
    7    3    2    2        0.0000000002
    7    3    3    2       -0.0055437578
    7    3    6    2       -0.0161858318
    7    3    7    2        0.0000000001
    7    3    3    3        0.0000000002
    7    3    7    3        0.0138560337
    7    3    4    4        0.0000000001
    7    3    5    5        0.0000000001
    7    3    6    6        0.0000000001
    8    3    1    1       -0.0519488514
    8    3    2    1       -0.0000000005
    8    3    3    1        0.0346795488
    8    3    6    1       -0.0269536019
    8    3    8    1       -0.0076012364
    8    3    2    2       -0.0512800919
    8    3    3    2       -0.0000000001
    8    3    6    2       -0.0000000002
    8    3    7    2       -0.0299973191
    8    3    8    2       -0.0000000002
    8    3    3    3       -0.0460614914
    8    3    6    3       -0.0009509618
    8    3    8    3        0.0516796602
    8    3    4    4       -0.0391002293
    8    3    5    5       -0.0391002293
    8    3    6    6       -0.0567128466
    8    3    7    6       -0.0000000003
    8    3    7    7       -0.0702118895
    9    3    9    1       -0.0103254288
    9    3    4    2       -0.0014175493
    9    3    5    2        0.0072321115
    9    3    9    3        0.0115144378
    9    3    7    4        0.0002965017
    9    3    7    5       -0.0015127046
   10    3   10    1       -0.0103254288
   10    3    4    2        0.0072321115
   10    3    5    2        0.0014175493
   10    3   10    3        0.0115144378
   10    3    7    4       -0.0015127046
   10    3    7    5       -0.0002965017
    4    4    1    1        0.3189064648
    4    4    3    1       -0.0244918313
    4    4    2    2        0.3206032992
    4    4    3    3        0.2921525949
    4    4    4    4        0.3161200473
    5    4    5    4        0.0140547888
    6    4    4    1       -0.0155136616
    6    4    4    3        0.0030108867
    6    4    6    4        0.0173966029
    7    4    4    2       -0.0167356859
    7    4    7    4        0.0186007100
    8    4    4    1       -0.0051748474
    8    4    4    3       -0.0011936040
    8    4    6    4        0.0023591001
    8    4    8    4        0.0069348255
    9    4    2    1        0.0300225284
    9    4    7    1        0.0068872564
    9    4    3    2        0.0003391081
    9    4    6    2        0.0104232435
    9    4    8    2       -0.0031550571
    9    4    7    3       -0.0036569319
    9    4    9    4        0.0158308499
    9    4    7    6        0.0255361514
    9    4    7    7       -0.0000000001
    9    4    8    7        0.0015483649
   10    4    2    1       -0.1531701753
   10    4    7    1       -0.0351376892
   10    4    8    1       -0.0000000001
   10    4    3    2       -0.0017300755
   10    4    6    2       -0.0531777340
   10    4    8    2        0.0160966005
   10    4    3    3        0.0000000002
   10    4    7    3        0.0186570861
   10    4    8    3        0.0000000004
   10    4    9    4       -0.0232319641
   10    4   10    4        0.1298030004
   10    4    9    5        0.1072485867
   10    4    6    6       -0.0000000001
   10    4    7    6       -0.1302813917
   10    4    8    6       -0.0000000004
   10    4    7    7        0.0000000005
   10    4    8    7       -0.0078995121
   10    4    8    8       -0.0000000003
    5    5    1    1        0.3189064648
    5    5    3    1       -0.0244918313
    5    5    2    2        0.3206032992
    5    5    3    3        0.2921525949
    5    5    4    4        0.2880104695
    5    5    5    5        0.3161200473
    6    5    5    1       -0.0155136616
    6    5    5    3        0.0030108867
    6    5    6    5        0.0173966029
    7    5    5    2       -0.0167356859
    7    5    7    5        0.0186007100
    8    5    5    1       -0.0051748474
    8    5    5    3       -0.0011936040
    8    5    6    5        0.0023591001
    8    5    8    5        0.0069348255
    9    5    2    1       -0.1531701753
    9    5    7    1       -0.0351376892
    9    5    8    1       -0.0000000001
    9    5    3    2       -0.0017300755
    9    5    6    2       -0.0531777340
    9    5    8    2        0.0160966005
    9    5    3    3        0.0000000002
    9    5    7    3        0.0186570861
    9    5    8    3        0.0000000004
    9    5    9    4       -0.0232319641
    9    5    9    5        0.1298030004
    9    5    6    6       -0.0000000001
    9    5    7    6       -0.1302813917
    9    5    8    6       -0.0000000004
    9    5    7    7        0.0000000005
    9    5    8    7       -0.0078995121
    9    5    8    8       -0.0000000003
   10    5    2    1       -0.0300225284
   10    5    7    1       -0.0068872564
   10    5    3    2       -0.0003391081
   10    5    6    2       -0.0104232435
   10    5    8    2        0.0031550571
   10    5    7    3        0.0036569319
   10    5    9    4        0.0067235638
   10    5   10    4        0.0232319641
   10    5    9    5        0.0232319641
   10    5   10    5        0.0158308499
   10    5    7    6       -0.0255361514
   10    5    7    7        0.0000000001
   10    5    8    7       -0.0015483649
    6    6    1    1        0.3618557732
    6    6    2    1        0.0000000002
    6    6    3    1       -0.0326739123
    6    6    6    1        0.0810671767
    6    6    2    2        0.3658548794
    6    6    6    2        0.0000000002
    6    6    3    3        0.3089645717
    6    6    6    3        0.0069125755
    6    6    4    4        0.3028927157
    6    6    5    5        0.3028927157
    6    6    6    6        0.3601270494
    7    6    1    1       -0.0000000002
    7    6    2    1        0.1968423470
    7    6    7    1        0.0828196563
    7    6    2    2       -0.0000000001
    7    6    3    2        0.0003694657
    7    6    6    2        0.0980626591
    7    6    3    3       -0.0000000004
    7    6    6    3       -0.0000000001
    7    6    7    3       -0.0287940542
    7    6    4    4       -0.0000000001
    7    6    5    5       -0.0000000001
    7    6    7    6        0.1946761304
    8    6    1    1       -0.0055764758
    8    6    2    1        0.0000000006
    8    6    3    1       -0.0280818585
    8    6    6    1       -0.0135591151
    8    6    7    1        0.0000000002
    8    6    8    1        0.0254386550
    8    6    2    2       -0.0094122053
    8    6    6    2        0.0000000004
    8    6    7    2       -0.0089980564
    8    6    3    3        0.0230334356
    8    6    6    3        0.0015863864
    8    6    8    3       -0.0224735352
    8    6    4    4        0.0132400779
    8    6    5    5        0.0132400779
    8    6    6    6        0.0043618777
    8    6    7    6        0.0000000006
    8    6    8    6        0.0337529867
    8    6    7    7        0.0046764145
    9    6    9    1        0.0174090691
    9    6    4    2        0.0014760462
    9    6    5    2       -0.0075305534
    9    6    9    3       -0.0034937299
    9    6    7    4        0.0015672498
    9    6    7    5       -0.0079958598
    9    6    9    6        0.0149940576
   10    6   10    1        0.0174090691
   10    6    4    2       -0.0075305534
   10    6    5    2       -0.0014760462
   10    6   10    3       -0.0034937299
   10    6    7    4       -0.0079958598
   10    6    7    5       -0.0015672498
   10    6   10    6        0.0149940576
    7    7    1    1        0.4031948121
    7    7    2    1       -0.0000000007
    7    7    3    1       -0.0367247452
    7    7    6    1        0.1069838615
    7    7    7    1       -0.0000000003
    7    7    2    2        0.4096179372
    7    7    3    2        0.0000000001
    7    7    6    2       -0.0000000002
    7    7    7    2        0.1089524373
    7    7    3    3        0.3281223024
    7    7    6    3       -0.0009031116
    7    7    7    3        0.0000000004
    7    7    4    4        0.3276142676
    7    7    5    5        0.3276142676
    7    7    6    6        0.4001307697
    7    7    7    6       -0.0000000009
    7    7    7    7        0.4571647942
    8    7    1    1        0.0000000002
    8    7    2    1       -0.0079641699
    8    7    3    1        0.0000000001
    8    7    6    1        0.0000000002
    8    7    7    1       -0.0060209240
    8    7    2    2        0.0000000002
    8    7    3    2       -0.0189006514
    8    7    6    2       -0.0083714531
    8    7    8    2        0.0235731611
    8    7    7    3       -0.0047216182
    8    7    6    6        0.0000000002
    8    7    7    6       -0.0003405823
    8    7    8    7        0.0304249850
    9    7    4    1       -0.0002475903
    9    7    5    1        0.0012631665
    9    7    9    2        0.0085431267
    9    7    4    3       -0.0001471185
    9    7    5    3        0.0007505751
    9    7    6    4        0.0023719373
    9    7    8    4        0.0003207318
    9    7    6    5       -0.0121012479
    9    7    8    5       -0.0016363225
    9    7    9    7        0.0175757308
   10    7    4    1        0.0012631665
   10    7    5    1        0.0002475903
   10    7   10    2        0.0085431267
   10    7    4    3        0.0007505751
   10    7    5    3        0.0001471185
   10    7    6    4       -0.0121012479
   10    7    8    4       -0.0016363225
   10    7    6    5       -0.0023719373
   10    7    8    5       -0.0003207318
   10    7   10    7        0.0175757308
    8    8    1    1        0.3759095055
    8    8    2    1        0.0000000002
    8    8    3    1       -0.0401754824
    8    8    6    1        0.0796349888
    8    8    7    1        0.0000000001
    8    8    8    1        0.0060537485
    8    8    2    2        0.3792857664
    8    8    3    2       -0.0000000003
    8    8    6    2        0.0000000003
    8    8    7    2        0.0772247000
    8    8    8    2        0.0000000005
    8    8    3    3        0.3493794198
    8    8    6    3       -0.0018038761
    8    8    7    3        0.0000000002
    8    8    8    3       -0.0788497671
    8    8    4    4        0.3153770093
    8    8    5    5        0.3153770093
    8    8    6    6        0.3609367081
    8    8    7    6        0.0000000001
    8    8    8    6        0.0251101588
    8    8    7    7        0.4009538019
    8    8    8    7        0.0000000004
    8    8    8    8        0.4225591481
    9    8    9    1       -0.0109433685
    9    8    4    2       -0.0015942368
    9    8    5    2        0.0081335429
    9    8    9    3       -0.0073671414
    9    8    7    4        0.0007506394
    9    8    7    5       -0.0038296429
    9    8    9    6       -0.0018781172
    9    8    9    8        0.0154759511
   10    8   10    1       -0.0109433685
   10    8    4    2        0.0081335429
   10    8    5    2        0.0015942368
   10    8   10    3       -0.0073671414
   10    8    7    4       -0.0038296429
   10    8    7    5       -0.0007506394
   10    8   10    6       -0.0018781172
   10    8   10    8        0.0154759511
    9    9    1    1        0.4026574358
    9    9    3    1       -0.0357370821
    9    9    6    1        0.0856278477
    9    9    8    1       -0.0232898870
    9    9    2    2        0.4084288151
    9    9    7    2        0.0782737913
    9    9    8    2        0.0000000003
    9    9    3    3        0.3343053596
    9    9    6    3        0.0021135154
    9    9    7    3        0.0000000002
    9    9    8    3       -0.0701471850
    9    9    4    4        0.3317289855
    9    9    5    4       -0.0051510064
    9    9    5    5        0.3569989657
    9    9    6    6        0.3750482870
    9    9    7    6       -0.0000000002
    9    9    8    6        0.0109085382
    9    9    7    7        0.4209282065
    9    9    8    7        0.0000000001
    9    9    8    8        0.3959740257
    9    9    9    9        0.4667384179
   10    9    4    4       -0.0051510063
   10    9    5    4        0.0126349901
   10    9    5    5        0.0051510063
   10    9   10    9        0.0220911286
   10   10    1    1        0.4026574358
   10   10    3    1       -0.0357370821
   10   10    6    1        0.0856278477
   10   10    8    1       -0.0232898870
   10   10    2    2        0.4084288151
   10   10    7    2        0.0782737913
   10   10    8    2        0.0000000003
   10   10    3    3        0.3343053596
   10   10    6    3        0.0021135154
   10   10    7    3        0.0000000002
   10   10    8    3       -0.0701471850
   10   10    4    4        0.3569989657
   10   10    5    4        0.0051510064
   10   10    5    5        0.3317289855
   10   10    6    6        0.3750482870
   10   10    7    6       -0.0000000002
   10   10    8    6        0.0109085382
   10   10    7    7        0.4209282065
   10   10    8    7        0.0000000001
   10   10    8    8        0.3959740257
   10   10    9    9        0.4225561609
   10   10   10   10        0.4667384179
 end_two_electron_integrals
 enrep_tce =   0.16528925619834706     
  EHF(A)             =        -0.79465413
  EHF(total)         =        -0.79465413
  Shift (HFtot-HFA)  =        -0.00000000
 Cpu & wall time / sec            1.6            1.6
 T1-number-of-tasks                    9

 t1 file size   =                9
 t1 file name   = ./H2.t1
 t1 file handle =       -998
 T2-number-of-boxes                  126

 t2 file size   =              126
 t2 file name   = ./H2.t2
 t2 file handle =       -996
CCSD iterations
 ---------------------------------------------------------
 Iter          Residuum       Correlation     Cpu    Wall 
 ---------------------------------------------------------
NEW TASK SCHEDULING
CCSD_T1_NTS --- OK
CCSD_T2_NTS --- OK
    1   1.2390020825102  -0.4219331570269     0.5     0.5
    2  15.0277769271226   1.4671437402290     0.4     0.5
    34866.9473937036555  23.8160549672986     0.4     0.5
    4************************************     0.5     0.5
    5************************************     0.5     0.5
 MICROCYCLE DIIS UPDATE:                    5                    5
    6   1.2388796275864  -0.0363877097299     0.5     0.5
    7   9.6142045871272  -0.9769524974626     0.4     0.5
    8 612.2216468569574  10.9397206236450     0.4     0.5
    9******************2430.8349269580340     0.4     0.5
   10************************************     0.5     0.5
 MICROCYCLE DIIS UPDATE:                   10                    5
   11   0.3375181368589  -0.1577567976213     0.5     0.5
   12   1.4643683761976  -0.4037576414633     0.3     0.5
   13   5.5794372449981   1.1902792796758     0.5     0.6
   14 414.2352647276817   9.2644429377969     0.4     0.6
   15******************1765.3367553473663     0.6     0.8
 MICROCYCLE DIIS UPDATE:                   15                    5
   16   0.2318073920512  -0.1634065539985     0.8     0.8
   17   1.3114348812202  -0.4048657898314     0.4     0.5
   18   5.5978083539746   1.2877178636466     0.4     0.5
   19 465.0612611593272   9.9752914851270     0.3     0.5
   20******************1722.0523351626443     0.5     0.5
 MICROCYCLE DIIS UPDATE:                   20                    5
   21   0.2274917815283  -0.1636243853628     0.5     0.6
   22   1.4966773388434  -0.4178472205338     0.5     0.7
   23   6.1759115922490   1.5576774796444     0.5     0.7
   24 823.2572708950279  13.3858048952151     0.5     0.6
   25******************2840.5881061682358     0.5     0.6
 MICROCYCLE DIIS UPDATE:                   25                    5
   26   0.0390334106387  -0.2012407894072     0.4     0.5
   27   0.2407973482122  -0.2171376258613     0.5     0.5
   28   1.6952192938971  -0.1624283145697     0.4     0.6
   29   3.9735641707195   0.3088660334107     0.3     0.6
   307506.5943181563125  13.8849555114953     0.3     0.6
 MICROCYCLE DIIS UPDATE:                   30                    5
   31   0.0048840512166  -0.2056553084993     0.4     0.6
   32   0.0216559994820  -0.2059116148983     0.4     0.5
   33   0.1298137573847  -0.2076144599558     0.5     0.6
   34   0.9221497094373  -0.1887038450230     0.5     0.8
   35   4.3834136656092  -0.0163787885892     0.6     0.8
 MICROCYCLE DIIS UPDATE:                   35                    5
   36   0.0001883247715  -0.2058855352884     0.6     0.8
   37   0.0006154325789  -0.2059171488826     0.5     0.7
   38   0.0042853779983  -0.2058115769530     0.4     0.6
   39   0.0333278365240  -0.2064424327853     0.4     0.5
   40   0.2665359498627  -0.2009108032571     0.5     0.6
 MICROCYCLE DIIS UPDATE:                   40                    5
   41   0.0000049447098  -0.2058960518790     0.4     0.6
   42   0.0000161596716  -0.2058964743219     0.3     0.5
   43   0.0000945954812  -0.2058991348047     0.5     0.5
   44   0.0006344684027  -0.2058807726900     0.5     0.5
   45   0.0044713345364  -0.2059565944280     0.4     0.6
 MICROCYCLE DIIS UPDATE:                   45                    5
   46   0.0000000986040  -0.2058964364486     0.5     0.5
 -----------------------------------------------------------------
 Iterations converged
 CCSD correlation energy / hartree =        -0.205896436448577
 CCSD total energy / hartree       =        -1.000550568960531

 Singles contributions

 Doubles contributions
     2a   (alpha)     2a   (beta ) ---     1a   (alpha)     1a   (beta )       -0.8901393261
 Ground state specification:
 exp(T)|Ref>~(1+T)|Ref>
 ------- a(p)+/a(q) strings ----------

 singles norm

 doubles norm

 Reference string
  0.74694535314338395      :(1a)+ (1b)+ |0>

 Singles strings

 Doubles strings
 -0.66488543330223870      :(2a)+ (2b)+ (1b)  (1a)  (1a)+ (1b)+ |0>
 -------------------------------------

 Parallel integral file used      11 records with       0 large values


 Task  times  cpu:       22.7s     wall:       29.6s


                                NWChem Input Module
                                -------------------


 Summary of allocated global arrays
-----------------------------------
  No active global arrays


MA_summarize_allocated_blocks: starting scan ...
MA_summarize_allocated_blocks: scan completed: 0 heap blocks, 0 stack blocks
MA usage statistics:

	allocation statistics:
					      heap	     stack
					      ----	     -----
	current number of blocks	         0	         0
	maximum number of blocks	        18	        42
	current total bytes		         0	         0
	maximum total bytes		  51983048	  61995224
	maximum total K-bytes		     51984	     61996
	maximum total M-bytes		        52	        62


                                     CITATION
                                     --------
                Please cite the following reference when publishing
                           results obtained with NWChem:

          E. Apra, E. J. Bylaska, W. A. de Jong, N. Govind, K. Kowalski,
       T. P. Straatsma, M. Valiev, H. J. J. van Dam, Y. Alexeev, J. Anchell,
       V. Anisimov, F. W. Aquino, R. Atta-Fynn, J. Autschbach, N. P. Bauman,
     J. C. Becca, D. E. Bernholdt, K. Bhaskaran-Nair, S. Bogatko, P. Borowski,
         J. Boschen, J. Brabec, A. Bruner, E. Cauet, Y. Chen, G. N. Chuev,
      C. J. Cramer, J. Daily, M. J. O. Deegan, T. H. Dunning Jr., M. Dupuis,
   K. G. Dyall, G. I. Fann, S. A. Fischer, A. Fonari, H. Fruchtl, L. Gagliardi,
      J. Garza, N. Gawande, S. Ghosh, K. Glaesemann, A. W. Gotz, J. Hammond,
       V. Helms, E. D. Hermes, K. Hirao, S. Hirata, M. Jacquelin, L. Jensen,
   B. G. Johnson, H. Jonsson, R. A. Kendall, M. Klemm, R. Kobayashi, V. Konkov,
      S. Krishnamoorthy, M. Krishnan, Z. Lin, R. D. Lins, R. J. Littlefield,
      A. J. Logsdail, K. Lopata, W. Ma, A. V. Marenich, J. Martin del Campo,
   D. Mejia-Rodriguez, J. E. Moore, J. M. Mullin, T. Nakajima, D. R. Nascimento,
    J. A. Nichols, P. J. Nichols, J. Nieplocha, A. Otero-de-la-Roza, B. Palmer,
    A. Panyala, T. Pirojsirikul, B. Peng, R. Peverati, J. Pittner, L. Pollack,
   R. M. Richard, P. Sadayappan, G. C. Schatz, W. A. Shelton, D. W. Silverstein,
   D. M. A. Smith, T. A. Soares, D. Song, M. Swart, H. L. Taylor, G. S. Thomas,
            V. Tipparaju, D. G. Truhlar, K. Tsemekhman, T. Van Voorhis,
      A. Vazquez-Mayagoitia, P. Verma, O. Villa, A. Vishnu, K. D. Vogiatzis,
        D. Wang, J. H. Weare, M. J. Williamson, T. L. Windus, K. Wolinski,
        A. T. Wong, Q. Wu, C. Yang, Q. Yu, M. Zacharias, Z. Zhang, Y. Zhao,
                                and R. J. Harrison
                        "NWChem: Past, present, and future
                         J. Chem. Phys. 152, 184102 (2020)
                               doi:10.1063/5.0004997

                                      AUTHORS
                                      -------
  E. Apra, E. J. Bylaska, N. Govind, K. Kowalski, M. Valiev, D. Mejia-Rodriguez,
       A. Kunitsa, N. P. Bauman, A. Panyala, W. A. de Jong, T. P. Straatsma,
        H. J. J. van Dam, D. Wang, T. L. Windus, J. Hammond, J. Autschbach,
    K. Bhaskaran-Nair, J. Brabec, K. Lopata, S. A. Fischer, S. Krishnamoorthy,
     M. Jacquelin, W. Ma, M. Klemm, O. Villa, Y. Chen, V. Anisimov, F. Aquino,
    S. Hirata, M. T. Hackler, Eric Hermes, L. Jensen, J. E. Moore, J. C. Becca,
      V. Konjkov, T. Risthaus, M. Malagoli, A. Marenich, A. Otero-de-la-Roza,
        J. Mullin, P. Nichols, R. Peverati, J. Pittner, Y. Zhao, P.-D. Fan,
        A. Fonari, M. J. Williamson, R. J. Harrison, J. R. Rehr, M. Dupuis,
     D. Silverstein, D. M. A. Smith, J. Nieplocha, V. Tipparaju, M. Krishnan,
     B. E. Van Kuiken, A. Vazquez-Mayagoitia, M. Swart, Q. Wu, T. Van Voorhis,
     A. A. Auer, M. Nooijen, L. D. Crosby, E. Brown, G. Cisneros, G. I. Fann,
   H. Fruchtl, J. Garza, K. Hirao, R. A. Kendall, J. A. Nichols, K. Tsemekhman,
    K. Wolinski, J. Anchell, D. E. Bernholdt, P. Borowski, T. Clark, D. Clerc,
   H. Dachsel, M. J. O. Deegan, K. Dyall, D. Elwood, E. Glendening, M. Gutowski,
   A. C. Hess, J. Jaffe, B. G. Johnson, J. Ju, R. Kobayashi, R. Kutteh, Z. Lin,
   R. Littlefield, X. Long, B. Meng, T. Nakajima, S. Niu, L. Pollack, M. Rosing,
   K. Glaesemann, G. Sandrone, M. Stave, H. Taylor, G. Thomas, J. H. van Lenthe,
                               A. T. Wong, Z. Zhang.

 Total times  cpu:       23.8s     wall:       31.1s
