 argument  1 = input.nw
  NWChem w/ OpenMP: maximum threads =    1



============================== echo of input deck ==============================
 echo
 start H2
 title "H2"

 memory total 24 gb

 geometry units bohr
 symmetry c1
        H  0.00000000  0.00000000  0.00000000
        H  0.00000000  6.60  0.00000000
 end

 basis
   * library cc-pVQZ
 end

 mcscf
   active  10
   actelec 2
   multiplicity 1
   maxiter 40
   vectors input H2.mos
   vectors output H2.mos
 end

 task mcscf

 scf
   vectors input H2.mos
   vectors output H2-6.60.mos
   noscf
 end

 tce
   2eorb
   2emet 13
   ccsd
   maxiter 300
   lshift 0.4
 end

 set tce:print_integrals T
 set tce:qorb 10
 set tce:qela 1
 set tce:qelb 1

# set tce:qducc T
# set tce:nactv 1
# set tce:nonhf T
# set tce:ducc_model 6

 set tce:printtol 0.02

 task tce
================================================================================


                                         
                                         


             Northwest Computational Chemistry Package (NWChem) 7.0.1
             --------------------------------------------------------


                    Environmental Molecular Sciences Laboratory
                       Pacific Northwest National Laboratory
                                Richland, WA 99352

                              Copyright (c) 1994-2020
                       Pacific Northwest National Laboratory
                            Battelle Memorial Institute

             NWChem is an open-source computational chemistry package
                        distributed under the terms of the
                      Educational Community License (ECL) 2.0
             A copy of the license is included with this distribution
                              in the LICENSE.TXT file

                                  ACKNOWLEDGMENT
                                  --------------

            This software and its documentation were developed at the
            EMSL at Pacific Northwest National Laboratory, a multiprogram
            national laboratory, operated for the U.S. Department of Energy
            by Battelle under Contract Number DE-AC05-76RL01830. Support
            for this work was provided by the Department of Energy Office
            of Biological and Environmental Research, Office of Basic
            Energy Sciences, and the Office of Advanced Scientific Computing.


           Job information
           ---------------

    hostname        = WE46210
    program         = /home/baum612/code/nwchem/bin/LINUX64/nwchem
    date            = Fri Nov 10 19:08:29 2023

    compiled        = Mon_Nov_06_10:06:57_2023
    source          = /home/baum612/code/nwchem
    nwchem branch   = 7.0.0
    nwchem revision = nwchem_on_git-4191-g39d87d64de
    ga revision     = 5.8.1
    use scalapack   = F
    input           = input.nw
    prefix          = H2.
    data base       = ./H2.db
    status          = startup
    nproc           =        1
    time left       =     -1s



           Memory information
           ------------------

    heap     =  805306362 doubles =   6144.0 Mbytes
    stack    =  805306367 doubles =   6144.0 Mbytes
    global   = 1610612736 doubles =  12288.0 Mbytes (distinct from heap & stack)
    total    = 3221225465 doubles =  24576.0 Mbytes
    verify   = yes
    hardfail = no 


           Directory information
           ---------------------

  0 permanent = .
  0 scratch   = .




                                NWChem Input Module
                                -------------------


                                        H2
                                        --
 Turning off AUTOSYM since
 SYMMETRY directive was detected!


          ------
          auto-z
          ------
     1 autoz failed with cvr_scaling = 1.2 changing to 1.3
     2 autoz failed with cvr_scaling = 1.3 changing to 1.4
     3 autoz failed with cvr_scaling = 1.4 changing to 1.5
     4 autoz failed with cvr_scaling = 1.5 changing to 1.6
     5 autoz failed with cvr_scaling = 1.6 changing to 1.7

 AUTOZ failed to generate good internal coordinates.
 Cartesian coordinates will be used in optimizations.



                             Geometry "geometry" -> ""
                             -------------------------

 Output coordinates in a.u. (scale by  1.000000000 to convert to a.u.)

  No.       Tag          Charge          X              Y              Z
 ---- ---------------- ---------- -------------- -------------- --------------
    1 H                    1.0000     0.00000000    -3.30000000     0.00000000
    2 H                    1.0000     0.00000000     3.30000000     0.00000000

      Atomic Mass 
      ----------- 

      H                  1.007825


 Effective nuclear repulsion energy (a.u.)       0.1515151515

            Nuclear Dipole moment (a.u.) 
            ----------------------------
        X                 Y               Z
 ---------------- ---------------- ----------------
     0.0000000000     0.0000000000     0.0000000000


            XYZ format geometry
            -------------------
     2
 geometry
 H                     0.00000000    -1.74628492     0.00000000
 H                     0.00000000     1.74628492     0.00000000



 Summary of "ao basis" -> "" (cartesian)
 ------------------------------------------------------------------------------
       Tag                 Description            Shells   Functions and Types
 ---------------- ------------------------------  ------  ---------------------
 *                          cc-pVQZ                   on all atoms 


                      Basis "ao basis" -> "ao basis" (cartesian)
                      -----
  H (Hydrogen)
  ------------
            Exponent  Coefficients 
       -------------- ---------------------------------------------------------
  1 S  8.26400000E+01  0.002006
  1 S  1.24100000E+01  0.015343
  1 S  2.82400000E+00  0.075579

  2 S  7.97700000E-01  1.000000

  3 S  2.58100000E-01  1.000000

  4 S  8.98900000E-02  1.000000

  5 P  2.29200000E+00  1.000000

  6 P  8.38000000E-01  1.000000

  7 P  2.92000000E-01  1.000000

  8 D  2.06200000E+00  1.000000

  9 D  6.62000000E-01  1.000000

 10 F  1.39700000E+00  1.000000



 Summary of "ao basis" -> "ao basis" (cartesian)
 ------------------------------------------------------------------------------
       Tag                 Description            Shells   Functions and Types
 ---------------- ------------------------------  ------  ---------------------
 H                          cc-pVQZ                 10       35   4s3p2d1f



                            NWChem Direct MCSCF Module
                            --------------------------


                                        H2


     -----------------------------------
       Basis functions:             70
       Inactive shells:              0
       Active shells:               10
       Active electrons:             2
       Symmetry:                    a       
       Multiplicity:                 1
       Orbital rotations:          600
     -----------------------------------

     -----------------------------------
       E2 extrapolation:             F
       Conjugacy:                    T
       Micro CI relax:               T
       Canonical orbitals:           T
       Maximum iterations:          40
       Converge threshold:    1.00E-04
       Conjugacy resets:            20
       Initial levelshift:        0.10
     -----------------------------------

 Loading old vectors from job with title :

H2


   input molecular orbitals = ./H2.mos
  output molecular orbtials = ./H2.mos

       No. of determinants:           100


  Starting Orbital Energies
    -0.266404    -0.233499    -0.000039    -0.000011    -0.000011    -0.000000
    -0.000000    -0.000000    -0.000000    -0.000000     0.421709     0.627886
     0.832084     1.136833     1.136833     1.763394     1.828124     1.828124
     1.887097     2.045462     2.045462     2.055901     2.055901     2.090308
     2.090308     2.090331     2.090331     2.098033     2.890639     2.955996
     4.374123     4.377226     4.377226     4.439250     4.439250     4.515822
     5.943890     6.055724     6.055724     6.060778     6.069475     6.069475
     6.070482     6.070482     6.070482     6.070482     6.070501     6.070501
     6.070502     6.070502     8.126995     8.134733     8.134733     8.136085
     8.141832     8.141832     8.142391     8.142391     8.142399     8.142399
     9.645687     9.660154     9.687502     9.715240     9.715240     9.716370
     9.716370     9.772427    22.292504    22.585357

  Orbital Symmetry Irreps
a    a    a    a    a    a    a    a    a    a    a    a    a    a    a   
a    a    a    a    a    a    a    a    a    a    a    a    a    a    a   
a    a    a    a    a    a    a    a    a    a    a    a    a    a    a   
a    a    a    a    a    a    a    a    a    a    a    a    a    a    a   
a    a    a    a    a    a    a    a    a    a   

 Integral file          = ./H2.aoints.0
 Record size in doubles =  65536        No. of integs per rec  =  43688
 Max. records in memory =     99        Max. records in file   = 280217
 No. of bits per label  =      8        No. of bits per value  =     64


 #quartets = 1.600D+04 #integrals = 3.674D+05 #direct =  0.0% #cached =100.0%




          %%%%% MacroIteration   1 %%%%%


          Number of sigma calls:       14
                       o<<<<< (aa):             0.00
                       o<<<<< (bb):             0.00
                       o<<<<< (ab):             0.00
                       o<<<<< (total)           0.00
                       o<<<<< (aa) ff           0.00
                       o<<<<< (aa) gop          0.00
                       o<<<<< (aa) dot          0.00
                       o<<<<< (ab) str          0.00
                       o<<<<< (ab) gath         0.00
                       o<<<<< (ab) dotab        0.00
                       o<<<<< (ab) scat         0.00
                       o<<<<< (ab) sync         0.00
                       o<<<<< Density           0.00
                       o<<<<< Density one       0.00
                       o<<<<< Density two       0.00
                       o<<<<< Density ab        0.00
                       o<<<<< Spin adapt        0.00
                       o<<<<< Symm adapt        0.00

                       o<<<<< (ab) max sync:      0.00

           >>>| Valence CI:             -1.151680590106
           >>>| MCSCF energy:           -1.000165438591
           >>>| Gradient norm:          0.201840770D-03
     --- Warning:  480 Hessian diagonals < 0.05 ---

                              ----- Line search ------

        step       energy         lsg     num-lsg   num-lsh   lsrat    time
      ------- ---------------- --------- --------- --------- ------- --------
       0.0000      -1.00016544 -8.27D-08  0.00D+00  0.00D+00 0.0D+00      0.3

          Number of sigma calls:        9
                       o<<<<< (aa):             0.00
                       o<<<<< (bb):             0.00
                       o<<<<< (ab):             0.01
                       o<<<<< (total)           0.01
                       o<<<<< (aa) ff           0.00
                       o<<<<< (aa) gop          0.00
                       o<<<<< (aa) dot          0.00
                       o<<<<< (ab) str          0.00
                       o<<<<< (ab) gath         0.00
                       o<<<<< (ab) dotab        0.00
                       o<<<<< (ab) scat         0.00
                       o<<<<< (ab) sync         0.00
                       o<<<<< Density           0.00
                       o<<<<< Density one       0.00
                       o<<<<< Density two       0.00
                       o<<<<< Density ab        0.00
                       o<<<<< Spin adapt        0.00
                       o<<<<< Symm adapt        0.00

                       o<<<<< (ab) max sync:      0.00
       1.0000      -1.00016551 -5.50D-08 -5.50D-08  2.78D-08 6.6D-01      0.5

          Number of sigma calls:       10
                       o<<<<< (aa):             0.00
                       o<<<<< (bb):             0.00
                       o<<<<< (ab):             0.01
                       o<<<<< (total)           0.01
                       o<<<<< (aa) ff           0.00
                       o<<<<< (aa) gop          0.00
                       o<<<<< (aa) dot          0.00
                       o<<<<< (ab) str          0.00
                       o<<<<< (ab) gath         0.00
                       o<<<<< (ab) dotab        0.00
                       o<<<<< (ab) scat         0.00
                       o<<<<< (ab) sync         0.00
                       o<<<<< Density           0.00
                       o<<<<< Density one       0.00
                       o<<<<< Density two       0.00
                       o<<<<< Density ab        0.00
                       o<<<<< Spin adapt        0.00
                       o<<<<< Symm adapt        0.00

                       o<<<<< (ab) max sync:      0.00
       2.9803      -1.00016556  3.36D-10  3.07D-10  2.79D-08 4.1D-03      0.7
     --- Orbitals canonicalized ---



          %%%%% MacroIteration   2 %%%%%


          Number of sigma calls:       14
                       o<<<<< (aa):             0.00
                       o<<<<< (bb):             0.00
                       o<<<<< (ab):             0.02
                       o<<<<< (total)           0.02
                       o<<<<< (aa) ff           0.00
                       o<<<<< (aa) gop          0.00
                       o<<<<< (aa) dot          0.00
                       o<<<<< (ab) str          0.00
                       o<<<<< (ab) gath         0.00
                       o<<<<< (ab) dotab        0.00
                       o<<<<< (ab) scat         0.00
                       o<<<<< (ab) sync         0.00
                       o<<<<< Density           0.00
                       o<<<<< Density one       0.00
                       o<<<<< Density two       0.00
                       o<<<<< Density ab        0.00
                       o<<<<< Spin adapt        0.00
                       o<<<<< Symm adapt        0.00

                       o<<<<< (ab) max sync:      0.00

           >>>| Valence CI:             -1.151680713125
           >>>| MCSCF energy:           -1.000165561610
           >>>| Gradient norm:          0.275298821D-03
     --- Warning:  480 Hessian diagonals < 0.05 ---
     --- Conjugacy reset ---

                              ----- Line search ------

        step       energy         lsg     num-lsg   num-lsh   lsrat    time
      ------- ---------------- --------- --------- --------- ------- --------
       0.0000      -1.00016556 -1.75D-08  0.00D+00  0.00D+00 0.0D+00      0.9

          Number of sigma calls:        9
                       o<<<<< (aa):             0.00
                       o<<<<< (bb):             0.00
                       o<<<<< (ab):             0.00
                       o<<<<< (total)           0.00
                       o<<<<< (aa) ff           0.00
                       o<<<<< (aa) gop          0.00
                       o<<<<< (aa) dot          0.00
                       o<<<<< (ab) str          0.00
                       o<<<<< (ab) gath         0.00
                       o<<<<< (ab) dotab        0.00
                       o<<<<< (ab) scat         0.00
                       o<<<<< (ab) sync         0.00
                       o<<<<< Density           0.00
                       o<<<<< Density one       0.00
                       o<<<<< Density two       0.00
                       o<<<<< Density ab        0.00
                       o<<<<< Spin adapt        0.00
                       o<<<<< Symm adapt        0.00

                       o<<<<< (ab) max sync:      0.00
       1.0000      -1.00016557 -3.61D-09 -3.60D-09  1.39D-08 2.1D-01      1.1

          Number of sigma calls:        8
                       o<<<<< (aa):             0.00
                       o<<<<< (bb):             0.00
                       o<<<<< (ab):             0.01
                       o<<<<< (total)           0.01
                       o<<<<< (aa) ff           0.00
                       o<<<<< (aa) gop          0.00
                       o<<<<< (aa) dot          0.00
                       o<<<<< (ab) str          0.00
                       o<<<<< (ab) gath         0.00
                       o<<<<< (ab) dotab        0.00
                       o<<<<< (ab) scat         0.00
                       o<<<<< (ab) sync         0.00
                       o<<<<< Density           0.00
                       o<<<<< Density one       0.00
                       o<<<<< Density two       0.00
                       o<<<<< Density ab        0.00
                       o<<<<< Spin adapt        0.00
                       o<<<<< Symm adapt        0.00

                       o<<<<< (ab) max sync:      0.00
       1.2597      -1.00016557 -3.89D-12 -3.90D-12  1.39D-08 2.2D-04      1.2



          %%%%% MacroIteration   3 %%%%%


          Number of sigma calls:        1
                       o<<<<< (aa):             0.00
                       o<<<<< (bb):             0.00
                       o<<<<< (ab):             0.00
                       o<<<<< (total)           0.00
                       o<<<<< (aa) ff           0.00
                       o<<<<< (aa) gop          0.00
                       o<<<<< (aa) dot          0.00
                       o<<<<< (ab) str          0.00
                       o<<<<< (ab) gath         0.00
                       o<<<<< (ab) dotab        0.00
                       o<<<<< (ab) scat         0.00
                       o<<<<< (ab) sync         0.00
                       o<<<<< Density           0.00
                       o<<<<< Density one       0.00
                       o<<<<< Density two       0.00
                       o<<<<< Density ab        0.00
                       o<<<<< Spin adapt        0.00
                       o<<<<< Symm adapt        0.00

                       o<<<<< (ab) max sync:      0.00

           >>>| Valence CI:             -1.151680724139
           >>>| MCSCF energy:           -1.000165572624
           >>>| Gradient norm:          0.349901161D-04




     ==============================
            MCSCF Converged
     ==============================



          Canonical Eigenvalues

              1      
    1   -0.2658
    2   -0.2342
    3   -0.0000
    4   -0.0000
    5   -0.0000
    6   -0.0000
    7   -0.0000
    8   -0.0000
    9   -0.0000
   10   -0.0000
   11    0.4208
   12    0.6264
   13    0.8341
   14    1.1369
   15    1.1369
   16    1.7634
   17    1.8296
   18    1.8296
   19    1.8896
   20    2.0473
   21    2.0473
   22    2.0556
   23    2.0556
   24    2.0903
   25    2.0903
   26    2.0903
   27    2.0903
   28    2.0943
   29    2.8918
   30    2.9537
   31    4.3745
   32    4.3767
   33    4.3767
   34    4.4398
   35    4.4398
   36    4.5118
   37    5.9439
   38    6.0558
   39    6.0558
   40    6.0608
   41    6.0696
   42    6.0696
   43    6.0705
   44    6.0705
   45    6.0705
   46    6.0705
   47    6.0705
   48    6.0705
   49    6.0705
   50    6.0705
   51    8.1270
   52    8.1348
   53    8.1348
   54    8.1357
   55    8.1419
   56    8.1419
   57    8.1424
   58    8.1424
   59    8.1424
   60    8.1424
   61    9.6466
   62    9.6589
   63    9.6879
   64    9.7150
   65    9.7150
   66    9.7167
   67    9.7167
   68    9.7709
   69   22.3043
   70   22.5734


          Converged CI vector

   Index           Coefficient          Config. Occupation
         1          0.73304789          1  1
        12         -0.68013918          2  2

          Number of sigma calls:        1
                       o<<<<< (aa):             0.00
                       o<<<<< (bb):             0.00
                       o<<<<< (ab):             0.00
                       o<<<<< (total)           0.00
                       o<<<<< (aa) ff           0.00
                       o<<<<< (aa) gop          0.00
                       o<<<<< (aa) dot          0.00
                       o<<<<< (ab) str          0.00
                       o<<<<< (ab) gath         0.00
                       o<<<<< (ab) dotab        0.00
                       o<<<<< (ab) scat         0.00
                       o<<<<< (ab) sync         0.00
                       o<<<<< Density           0.00
                       o<<<<< Density one       0.00
                       o<<<<< Density two       0.00
                       o<<<<< Density ab        0.00
                       o<<<<< Spin adapt        0.00
                       o<<<<< Symm adapt        0.00

                       o<<<<< (ab) max sync:      0.00



          Natural orbital occupation numbers

              1      
    1    1.0747
    2    0.9252
    3    0.0001
    4    0.0000
    5    0.0000
    6    0.0000
    7    0.0000
    8    0.0000
    9    0.0000
   10    0.0000


          Number of sigma calls:       14
                       o<<<<< (aa):             0.00
                       o<<<<< (bb):             0.00
                       o<<<<< (ab):             0.00
                       o<<<<< (total)           0.00
                       o<<<<< (aa) ff           0.00
                       o<<<<< (aa) gop          0.00
                       o<<<<< (aa) dot          0.00
                       o<<<<< (ab) str          0.00
                       o<<<<< (ab) gath         0.00
                       o<<<<< (ab) dotab        0.00
                       o<<<<< (ab) scat         0.00
                       o<<<<< (ab) sync         0.00
                       o<<<<< Density           0.00
                       o<<<<< Density one       0.00
                       o<<<<< Density two       0.00
                       o<<<<< Density ab        0.00
                       o<<<<< Spin adapt        0.00
                       o<<<<< Symm adapt        0.00

                       o<<<<< (ab) max sync:      0.00


       Final MCSCF results 
       ------------------- 

       Total MCSCF energy =     -1.000165572624
            Gradient norm =      3.5D-05

    CPU time for solution =      1.5s
   Wall time for solution =      2.1s



                        Analysis of MCSCF natural orbitals
                        ----------------------------------

 Vector    1  Occ=1.074719D+00  E=-2.657564D-01  Symmetry=a
              MO Center=  6.4D-15,  4.0D-12, -4.1D-15, r^2= 3.8D+00
   Bfn.  Coefficient  Atom+Function         Bfn.  Coefficient  Atom+Function  
  ----- ------------  ---------------      ----- ------------  ---------------
     3      0.342062  1 H  s                 38      0.342062  2 H  s          
     4      0.209867  1 H  s                 39      0.209867  2 H  s          
     2      0.177250  1 H  s                 37      0.177250  2 H  s          

 Vector    2  Occ=9.251786D-01  E=-2.341511D-01  Symmetry=a
              MO Center=  2.7D-14, -3.7D-12, -1.8D-14, r^2= 3.9D+00
   Bfn.  Coefficient  Atom+Function         Bfn.  Coefficient  Atom+Function  
  ----- ------------  ---------------      ----- ------------  ---------------
     3      0.358467  1 H  s                 38     -0.358467  2 H  s          
     4      0.209649  1 H  s                 39     -0.209649  2 H  s          
     2      0.182938  1 H  s                 37     -0.182938  2 H  s          

 Vector    3  Occ=6.752109D-05  E=-3.624509D-05  Symmetry=a
              MO Center=  1.6D-13,  3.5D-09, -9.9D-14, r^2= 4.1D+00
   Bfn.  Coefficient  Atom+Function         Bfn.  Coefficient  Atom+Function  
  ----- ------------  ---------------      ----- ------------  ---------------
     9      1.817390  1 H  py                44     -1.817390  2 H  py         
    12     -1.004467  1 H  py                47      1.004467  2 H  py         
    32     -0.767603  1 H  fyyy              67      0.767603  2 H  fyyy       
    27     -0.751431  1 H  fxxy              34     -0.751431  1 H  fyzz       
    62      0.751431  2 H  fxxy              69      0.751431  2 H  fyzz       

 Vector    4  Occ=1.731837D-05  E=-9.904195D-06  Symmetry=a
              MO Center= -7.1D-15, -1.9D-11,  2.0D-14, r^2= 4.0D+00
   Bfn.  Coefficient  Atom+Function         Bfn.  Coefficient  Atom+Function  
  ----- ------------  ---------------      ----- ------------  ---------------
    10      1.545636  1 H  pz                45      1.545636  2 H  pz         
    13     -0.931307  1 H  pz                48     -0.931307  2 H  pz         
    33     -0.678877  1 H  fyyz              68     -0.678877  2 H  fyyz       
    28     -0.651504  1 H  fxxz              35     -0.651504  1 H  fzzz       
    63     -0.651504  2 H  fxxz              70     -0.651504  2 H  fzzz       

 Vector    5  Occ=1.731837D-05  E=-9.904195D-06  Symmetry=a
              MO Center= -3.1D-13, -1.8D-11, -7.9D-14, r^2= 4.0D+00
   Bfn.  Coefficient  Atom+Function         Bfn.  Coefficient  Atom+Function  
  ----- ------------  ---------------      ----- ------------  ---------------
     8      1.545636  1 H  px                43      1.545636  2 H  px         
    11     -0.931307  1 H  px                46     -0.931307  2 H  px         
    29     -0.678877  1 H  fxyy              64     -0.678877  2 H  fxyy       
    26     -0.651504  1 H  fxxx              31     -0.651504  1 H  fxzz       
    61     -0.651504  2 H  fxxx              66     -0.651504  2 H  fxzz       

 Vector    6  Occ=2.474614D-07  E=-1.705188D-07  Symmetry=a
              MO Center=  1.7D-13, -1.0D-09,  1.6D-13, r^2= 3.8D+00
   Bfn.  Coefficient  Atom+Function         Bfn.  Coefficient  Atom+Function  
  ----- ------------  ---------------      ----- ------------  ---------------
     9      1.183102  1 H  py                44     -1.183102  2 H  py         
     2      0.597650  1 H  s                 37      0.597650  2 H  s          
     4     -0.523539  1 H  s                 39     -0.523539  2 H  s          
    27     -0.488238  1 H  fxxy              34     -0.488238  1 H  fyzz       
    62      0.488238  2 H  fxxy              69      0.488238  2 H  fyzz       

 Vector    7  Occ=1.120872D-07  E=-1.043361D-07  Symmetry=a
              MO Center= -1.3D-12,  3.1D-09,  8.0D-13, r^2= 3.1D+00
   Bfn.  Coefficient  Atom+Function         Bfn.  Coefficient  Atom+Function  
  ----- ------------  ---------------      ----- ------------  ---------------
     9      1.434928  1 H  py                44      1.434928  2 H  py         
     3     -0.928869  1 H  s                 38      0.928869  2 H  s          
     2      0.846770  1 H  s                 37     -0.846770  2 H  s          
    27     -0.524334  1 H  fxxy              34     -0.524334  1 H  fyzz       
    62     -0.524334  2 H  fxxy              69     -0.524334  2 H  fyzz       

 Vector    8  Occ=4.905524D-08  E=-5.845424D-08  Symmetry=a
              MO Center= -5.6D-15,  3.3D-09,  3.3D-17, r^2= 3.9D+00
   Bfn.  Coefficient  Atom+Function         Bfn.  Coefficient  Atom+Function  
  ----- ------------  ---------------      ----- ------------  ---------------
     9      3.029042  1 H  py                44     -3.029042  2 H  py         
    27     -1.334409  1 H  fxxy              34     -1.334409  1 H  fyzz       
    62      1.334409  2 H  fxxy              69      1.334409  2 H  fyzz       
    32     -1.033486  1 H  fyyy              67      1.033486  2 H  fyyy       
     6     -0.748540  1 H  py                41      0.748540  2 H  py         

 Vector    9  Occ=4.003589D-09  E=-3.440119D-09  Symmetry=a
              MO Center= -2.7D-14,  4.8D-12, -5.4D-13, r^2= 2.9D+00
   Bfn.  Coefficient  Atom+Function         Bfn.  Coefficient  Atom+Function  
  ----- ------------  ---------------      ----- ------------  ---------------
    10      1.433901  1 H  pz                45     -1.433901  2 H  pz         
    28     -0.469444  1 H  fxxz              35     -0.469444  1 H  fzzz       
    63      0.469444  2 H  fxxz              70      0.469444  2 H  fzzz       
    24      0.384282  1 H  dyz               59      0.384282  2 H  dyz        
    33     -0.345448  1 H  fyyz              68      0.345448  2 H  fyyz       

 Vector   10  Occ=4.003589D-09  E=-3.440119D-09  Symmetry=a
              MO Center=  9.8D-13,  4.3D-12, -5.1D-14, r^2= 2.9D+00
   Bfn.  Coefficient  Atom+Function         Bfn.  Coefficient  Atom+Function  
  ----- ------------  ---------------      ----- ------------  ---------------
     8      1.433901  1 H  px                43     -1.433901  2 H  px         
    26     -0.469444  1 H  fxxx              31     -0.469444  1 H  fxzz       
    61      0.469444  2 H  fxxx              66      0.469444  2 H  fxzz       
    21      0.384282  1 H  dxy               56      0.384282  2 H  dxy        
    29     -0.345448  1 H  fxyy              64      0.345448  2 H  fxyy       

 Vector   11  Occ=0.000000D+00  E= 4.207869D-01  Symmetry=a
              MO Center=  2.5D-12,  1.7D-09, -1.5D-12, r^2= 8.7D+00
   Bfn.  Coefficient  Atom+Function         Bfn.  Coefficient  Atom+Function  
  ----- ------------  ---------------      ----- ------------  ---------------
     3      2.701578  1 H  s                 38     -2.701578  2 H  s          
     4     -1.636527  1 H  s                 39      1.636527  2 H  s          
     9     -1.121953  1 H  py                44     -1.121953  2 H  py         
     2     -0.664651  1 H  s                 37      0.664651  2 H  s          
    12      0.516078  1 H  py                47      0.516078  2 H  py         

 Vector   12  Occ=0.000000D+00  E= 6.264418D-01  Symmetry=a
              MO Center= -1.1D-12,  3.2D-09,  6.5D-13, r^2= 5.9D+00
   Bfn.  Coefficient  Atom+Function         Bfn.  Coefficient  Atom+Function  
  ----- ------------  ---------------      ----- ------------  ---------------
     3      1.857892  1 H  s                 38     -1.857892  2 H  s          
     9      1.223524  1 H  py                44      1.223524  2 H  py         
     4     -1.098473  1 H  s                 39      1.098473  2 H  s          
    12     -0.902830  1 H  py                47     -0.902830  2 H  py         
     2     -0.496694  1 H  s                 32     -0.498178  1 H  fyyy       

 Vector   13  Occ=0.000000D+00  E= 8.341444D-01  Symmetry=a
              MO Center=  4.3D-14, -1.8D-08, -2.5D-14, r^2= 7.1D+00
   Bfn.  Coefficient  Atom+Function         Bfn.  Coefficient  Atom+Function  
  ----- ------------  ---------------      ----- ------------  ---------------
     3      3.907818  1 H  s                 38      3.907818  2 H  s          
     4     -1.584552  1 H  s                 39     -1.584552  2 H  s          
     2     -1.252027  1 H  s                 37     -1.252027  2 H  s          
    23     -0.642901  1 H  dyy               58     -0.642901  2 H  dyy        
    20     -0.603874  1 H  dxx               25     -0.603874  1 H  dzz        

 Vector   14  Occ=0.000000D+00  E= 1.136939D+00  Symmetry=a
              MO Center=  3.0D-13, -2.4D-11, -3.0D-14, r^2= 5.4D+00
   Bfn.  Coefficient  Atom+Function         Bfn.  Coefficient  Atom+Function  
  ----- ------------  ---------------      ----- ------------  ---------------
     8      4.926637  1 H  px                43     -4.926637  2 H  px         
    26     -1.914255  1 H  fxxx              31     -1.914255  1 H  fxzz       
    61      1.914255  2 H  fxxx              66      1.914255  2 H  fxzz       
    29     -1.896575  1 H  fxyy              64      1.896575  2 H  fxyy       
    11     -1.482190  1 H  px                46      1.482190  2 H  px         

 Vector   15  Occ=0.000000D+00  E= 1.136939D+00  Symmetry=a
              MO Center= -1.2D-14, -2.3D-11, -1.2D-13, r^2= 5.4D+00
   Bfn.  Coefficient  Atom+Function         Bfn.  Coefficient  Atom+Function  
  ----- ------------  ---------------      ----- ------------  ---------------
    10      4.926637  1 H  pz                45     -4.926637  2 H  pz         
    28     -1.914255  1 H  fxxz              35     -1.914255  1 H  fzzz       
    63      1.914255  2 H  fxxz              70      1.914255  2 H  fzzz       
    33     -1.896575  1 H  fyyz              68      1.896575  2 H  fyyz       
    13     -1.482190  1 H  pz                48      1.482190  2 H  pz         

 Vector   16  Occ=0.000000D+00  E= 1.763426D+00  Symmetry=a
              MO Center= -8.8D-13,  6.5D-09,  5.2D-13, r^2= 5.2D+00
   Bfn.  Coefficient  Atom+Function         Bfn.  Coefficient  Atom+Function  
  ----- ------------  ---------------      ----- ------------  ---------------
     9      4.675944  1 H  py                44      4.675944  2 H  py         
     3      2.191730  1 H  s                 38     -2.191730  2 H  s          
    27     -1.799266  1 H  fxxy              34     -1.799266  1 H  fyzz       
    62     -1.799266  2 H  fxxy              69     -1.799266  2 H  fyzz       
    32     -1.790269  1 H  fyyy              67     -1.790269  2 H  fyyy       

 Vector   17  Occ=0.000000D+00  E= 1.829642D+00  Symmetry=a
              MO Center= -4.1D-14,  5.3D-11,  6.0D-14, r^2= 4.3D+00
   Bfn.  Coefficient  Atom+Function         Bfn.  Coefficient  Atom+Function  
  ----- ------------  ---------------      ----- ------------  ---------------
    10      5.200299  1 H  pz                45      5.200299  2 H  pz         
     8     -3.429277  1 H  px                43     -3.429277  2 H  px         
    28     -2.030639  1 H  fxxz              33     -2.029857  1 H  fyyz       
    35     -2.030639  1 H  fzzz              63     -2.030639  2 H  fxxz       
    68     -2.029857  2 H  fyyz              70     -2.030639  2 H  fzzz       

 Vector   18  Occ=0.000000D+00  E= 1.829642D+00  Symmetry=a
              MO Center= -3.4D-14,  5.3D-11, -1.9D-14, r^2= 4.3D+00
   Bfn.  Coefficient  Atom+Function         Bfn.  Coefficient  Atom+Function  
  ----- ------------  ---------------      ----- ------------  ---------------
     8      5.200299  1 H  px                43      5.200299  2 H  px         
    10      3.429277  1 H  pz                45      3.429277  2 H  pz         
    26     -2.030639  1 H  fxxx              29     -2.029857  1 H  fxyy       
    31     -2.030639  1 H  fxzz              61     -2.030639  2 H  fxxx       
    64     -2.029857  2 H  fxyy              66     -2.030639  2 H  fxzz       

 Vector   19  Occ=0.000000D+00  E= 1.889595D+00  Symmetry=a
              MO Center= -1.4D-15, -3.1D-09,  2.7D-15, r^2= 5.0D+00
   Bfn.  Coefficient  Atom+Function         Bfn.  Coefficient  Atom+Function  
  ----- ------------  ---------------      ----- ------------  ---------------
     9      4.783387  1 H  py                44     -4.783387  2 H  py         
    32     -1.886503  1 H  fyyy              67      1.886503  2 H  fyyy       
    27     -1.874593  1 H  fxxy              34     -1.874593  1 H  fyzz       
    62      1.874593  2 H  fxxy              69      1.874593  2 H  fyzz       
     6     -1.270270  1 H  py                41      1.270270  2 H  py         

 Vector   20  Occ=0.000000D+00  E= 2.047325D+00  Symmetry=a
              MO Center= -1.1D-14, -1.3D-09,  5.5D-15, r^2= 4.4D+00
   Bfn.  Coefficient  Atom+Function         Bfn.  Coefficient  Atom+Function  
  ----- ------------  ---------------      ----- ------------  ---------------
    24      1.294973  1 H  dyz               59     -1.294973  2 H  dyz        
    10     -0.512971  1 H  pz                45     -0.512971  2 H  pz         
    33      0.202109  1 H  fyyz              68      0.202109  2 H  fyyz       
    28      0.200439  1 H  fxxz              35      0.200439  1 H  fzzz       
    63      0.200439  2 H  fxxz              70      0.200439  2 H  fzzz       


 Wrote Lagrangian and 1- and 2-particle density matrices to ./H2.mcpdm


     Multipole analysis of the density
     ---------------------------------

     L   x y z        total        nuclear
     -   - - -        -----        -------
     0   0 0 0     -0.000000      2.000000

     1   1 0 0     -0.000000      0.000000
     1   0 1 0     -0.000000      0.000000
     1   0 0 1      0.000000      0.000000

     2   2 0 0     -2.002499      0.000000
     2   1 1 0      0.000000      0.000000
     2   1 0 1     -0.000000      0.000000
     2   0 2 0     -1.964808     21.780000
     2   0 1 1     -0.000000      0.000000
     2   0 0 2     -2.002499      0.000000


  Mulliken analysis of the total density
  --------------------------------------

    Atom       Charge   Shell Charges
 -----------   ------   -------------------------------------------------------
    1 H    1     1.00   0.05  0.22  0.48  0.25  0.00 -0.00  0.00  0.00  0.00  0.00
    2 H    1     1.00   0.05  0.22  0.48  0.25  0.00 -0.00  0.00  0.00  0.00  0.00

    Mulliken analysis of the active space density
    ---------------------------------------------

    Atom       Charge   Shell Charges
 -----------   ------   -------------------------------------------------------
    1 H    1     1.00   0.05  0.22  0.48  0.25  0.00 -0.00  0.00  0.00  0.00  0.00
    2 H    1     1.00   0.05  0.22  0.48  0.25  0.00 -0.00  0.00  0.00  0.00  0.00

 Parallel integral file used       9 records with       0 large values


 Task  times  cpu:        1.5s     wall:        2.2s


                                NWChem Input Module
                                -------------------


                                 NWChem SCF Module
                                 -----------------


                                        H2



  ao basis        = "ao basis"
  functions       =    70
  atoms           =     2
  closed shells   =     1
  open shells     =     0
  charge          =   0.00
  wavefunction    = RHF 
  input vectors   = ./H2.mos
  output vectors  = ./H2-6.60.mos
  use symmetry    = F
  symmetry adapt  = F


 Summary of "ao basis" -> "ao basis" (cartesian)
 ------------------------------------------------------------------------------
       Tag                 Description            Shells   Functions and Types
 ---------------- ------------------------------  ------  ---------------------
 H                          cc-pVQZ                 10       35   4s3p2d1f



 Forming initial guess at       2.2s


 Loading old vectors from job with title :

H2


 Starting SCF solution at       2.2s



 ----------------------------------------------
         Quadratically convergent ROHF

 Convergence threshold     :          1.000E-04
 Maximum no. of iterations :           30
 Final Fock-matrix accuracy:          1.000E-07
 ----------------------------------------------


 Integral file          = ./H2.aoints.0
 Record size in doubles =  65536        No. of integs per rec  =  43688
 Max. records in memory =     99        Max. records in file   = 280249
 No. of bits per label  =      8        No. of bits per value  =     64


 #quartets = 1.446D+04 #integrals = 3.205D+05 #direct =  0.0% #cached =100.0%



       Final RHF  results 
       ------------------ 

         Total SCF energy =     -0.779729998508
      One-electron energy =     -1.314194123525
      Two-electron energy =      0.382948973502
 Nuclear repulsion energy =      0.151515151515

        Time for solution =      0.0s


             Final eigenvalues
             -----------------

              1      
    1   -0.2658
    2   -0.2342
    3   -0.0000
    4   -0.0000
    5   -0.0000
    6   -0.0000
    7   -0.0000
    8   -0.0000
    9   -0.0000
   10   -0.0000
   11    0.4208

                       ROHF Final Molecular Orbital Analysis
                       -------------------------------------

 Vector    1  Occ=2.000000D+00  E=-2.657564D-01
              MO Center=  6.4D-15,  4.0D-12, -4.1D-15, r^2= 3.8D+00
   Bfn.  Coefficient  Atom+Function         Bfn.  Coefficient  Atom+Function  
  ----- ------------  ---------------      ----- ------------  ---------------
     3      0.342062  1 H  s                 38      0.342062  2 H  s          
     4      0.209867  1 H  s                 39      0.209867  2 H  s          
     2      0.177250  1 H  s                 37      0.177250  2 H  s          

 Vector    2  Occ=0.000000D+00  E=-2.341511D-01
              MO Center=  2.7D-14, -3.7D-12, -1.8D-14, r^2= 3.9D+00
   Bfn.  Coefficient  Atom+Function         Bfn.  Coefficient  Atom+Function  
  ----- ------------  ---------------      ----- ------------  ---------------
     3      0.358467  1 H  s                 38     -0.358467  2 H  s          
     4      0.209649  1 H  s                 39     -0.209649  2 H  s          
     2      0.182938  1 H  s                 37     -0.182938  2 H  s          

 Vector    3  Occ=0.000000D+00  E=-3.624509D-05
              MO Center=  1.6D-13,  3.5D-09, -9.9D-14, r^2= 4.1D+00
   Bfn.  Coefficient  Atom+Function         Bfn.  Coefficient  Atom+Function  
  ----- ------------  ---------------      ----- ------------  ---------------
     9      1.817390  1 H  py                44     -1.817390  2 H  py         
    12     -1.004467  1 H  py                47      1.004467  2 H  py         
    32     -0.767603  1 H  fyyy              67      0.767603  2 H  fyyy       
    27     -0.751431  1 H  fxxy              34     -0.751431  1 H  fyzz       
    62      0.751431  2 H  fxxy              69      0.751431  2 H  fyzz       

 Vector    4  Occ=0.000000D+00  E=-9.904195D-06
              MO Center= -7.1D-15, -1.9D-11,  2.0D-14, r^2= 4.0D+00
   Bfn.  Coefficient  Atom+Function         Bfn.  Coefficient  Atom+Function  
  ----- ------------  ---------------      ----- ------------  ---------------
    10      1.545636  1 H  pz                45      1.545636  2 H  pz         
    13     -0.931307  1 H  pz                48     -0.931307  2 H  pz         
    33     -0.678877  1 H  fyyz              68     -0.678877  2 H  fyyz       
    28     -0.651504  1 H  fxxz              35     -0.651504  1 H  fzzz       
    63     -0.651504  2 H  fxxz              70     -0.651504  2 H  fzzz       

 Vector    5  Occ=0.000000D+00  E=-9.904195D-06
              MO Center= -3.1D-13, -1.8D-11, -7.9D-14, r^2= 4.0D+00
   Bfn.  Coefficient  Atom+Function         Bfn.  Coefficient  Atom+Function  
  ----- ------------  ---------------      ----- ------------  ---------------
     8      1.545636  1 H  px                43      1.545636  2 H  px         
    11     -0.931307  1 H  px                46     -0.931307  2 H  px         
    29     -0.678877  1 H  fxyy              64     -0.678877  2 H  fxyy       
    26     -0.651504  1 H  fxxx              31     -0.651504  1 H  fxzz       
    61     -0.651504  2 H  fxxx              66     -0.651504  2 H  fxzz       

 Vector    6  Occ=0.000000D+00  E=-1.705188D-07
              MO Center=  1.7D-13, -1.0D-09,  1.6D-13, r^2= 3.8D+00
   Bfn.  Coefficient  Atom+Function         Bfn.  Coefficient  Atom+Function  
  ----- ------------  ---------------      ----- ------------  ---------------
     9      1.183102  1 H  py                44     -1.183102  2 H  py         
     2      0.597650  1 H  s                 37      0.597650  2 H  s          
     4     -0.523539  1 H  s                 39     -0.523539  2 H  s          
    27     -0.488238  1 H  fxxy              34     -0.488238  1 H  fyzz       
    62      0.488238  2 H  fxxy              69      0.488238  2 H  fyzz       

 Vector    7  Occ=0.000000D+00  E=-1.043361D-07
              MO Center= -1.3D-12,  3.1D-09,  8.0D-13, r^2= 3.1D+00
   Bfn.  Coefficient  Atom+Function         Bfn.  Coefficient  Atom+Function  
  ----- ------------  ---------------      ----- ------------  ---------------
     9      1.434928  1 H  py                44      1.434928  2 H  py         
     3     -0.928869  1 H  s                 38      0.928869  2 H  s          
     2      0.846770  1 H  s                 37     -0.846770  2 H  s          
    27     -0.524334  1 H  fxxy              34     -0.524334  1 H  fyzz       
    62     -0.524334  2 H  fxxy              69     -0.524334  2 H  fyzz       

 Vector    8  Occ=0.000000D+00  E=-5.845424D-08
              MO Center= -5.6D-15,  3.3D-09,  3.3D-17, r^2= 3.9D+00
   Bfn.  Coefficient  Atom+Function         Bfn.  Coefficient  Atom+Function  
  ----- ------------  ---------------      ----- ------------  ---------------
     9      3.029042  1 H  py                44     -3.029042  2 H  py         
    27     -1.334409  1 H  fxxy              34     -1.334409  1 H  fyzz       
    62      1.334409  2 H  fxxy              69      1.334409  2 H  fyzz       
    32     -1.033486  1 H  fyyy              67      1.033486  2 H  fyyy       
     6     -0.748540  1 H  py                41      0.748540  2 H  py         

 Vector    9  Occ=0.000000D+00  E=-3.440119D-09
              MO Center= -2.7D-14,  4.8D-12, -5.4D-13, r^2= 2.9D+00
   Bfn.  Coefficient  Atom+Function         Bfn.  Coefficient  Atom+Function  
  ----- ------------  ---------------      ----- ------------  ---------------
    10      1.433901  1 H  pz                45     -1.433901  2 H  pz         
    28     -0.469444  1 H  fxxz              35     -0.469444  1 H  fzzz       
    63      0.469444  2 H  fxxz              70      0.469444  2 H  fzzz       
    24      0.384282  1 H  dyz               59      0.384282  2 H  dyz        
    33     -0.345448  1 H  fyyz              68      0.345448  2 H  fyyz       

 Vector   10  Occ=0.000000D+00  E=-3.440119D-09
              MO Center=  9.8D-13,  4.3D-12, -5.1D-14, r^2= 2.9D+00
   Bfn.  Coefficient  Atom+Function         Bfn.  Coefficient  Atom+Function  
  ----- ------------  ---------------      ----- ------------  ---------------
     8      1.433901  1 H  px                43     -1.433901  2 H  px         
    26     -0.469444  1 H  fxxx              31     -0.469444  1 H  fxzz       
    61      0.469444  2 H  fxxx              66      0.469444  2 H  fxzz       
    21      0.384282  1 H  dxy               56      0.384282  2 H  dxy        
    29     -0.345448  1 H  fxyy              64      0.345448  2 H  fxyy       

 Vector   11  Occ=0.000000D+00  E= 4.207869D-01
              MO Center=  2.5D-12,  1.7D-09, -1.5D-12, r^2= 8.7D+00
   Bfn.  Coefficient  Atom+Function         Bfn.  Coefficient  Atom+Function  
  ----- ------------  ---------------      ----- ------------  ---------------
     3      2.701578  1 H  s                 38     -2.701578  2 H  s          
     4     -1.636527  1 H  s                 39      1.636527  2 H  s          
     9     -1.121953  1 H  py                44     -1.121953  2 H  py         
     2     -0.664651  1 H  s                 37      0.664651  2 H  s          
    12      0.516078  1 H  py                47      0.516078  2 H  py         

 Vector   12  Occ=0.000000D+00  E= 6.264418D-01
              MO Center= -1.1D-12,  3.2D-09,  6.5D-13, r^2= 5.9D+00
   Bfn.  Coefficient  Atom+Function         Bfn.  Coefficient  Atom+Function  
  ----- ------------  ---------------      ----- ------------  ---------------
     3      1.857892  1 H  s                 38     -1.857892  2 H  s          
     9      1.223524  1 H  py                44      1.223524  2 H  py         
     4     -1.098473  1 H  s                 39      1.098473  2 H  s          
    12     -0.902830  1 H  py                47     -0.902830  2 H  py         
     2     -0.496694  1 H  s                 32     -0.498178  1 H  fyyy       


 center of mass
 --------------
 x =   0.00000000 y =   0.00000000 z =   0.00000000

 moments of inertia (a.u.)
 ------------------
          21.950428500000           0.000000000000           0.000000000000
           0.000000000000           0.000000000000           0.000000000000
           0.000000000000           0.000000000000          21.950428500000

  Mulliken analysis of the total density
  --------------------------------------

    Atom       Charge   Shell Charges
 -----------   ------   -------------------------------------------------------
    1 H    1     1.00   0.04  0.21  0.47  0.27 -0.00  0.00 -0.00  0.00  0.00 -0.00
    2 H    1     1.00   0.04  0.21  0.47  0.27 -0.00  0.00 -0.00  0.00  0.00 -0.00

       Multipole analysis of the density wrt the origin
       ------------------------------------------------

     L   x y z        total         open         nuclear
     -   - - -        -----         ----         -------
     0   0 0 0     -0.000000      0.000000      2.000000

     1   1 0 0     -0.000000      0.000000      0.000000
     1   0 1 0     -0.000000      0.000000      0.000000
     1   0 0 1      0.000000      0.000000      0.000000

     2   2 0 0     -2.063291      0.000000      0.000000
     2   1 1 0     -0.000000      0.000000      0.000000
     2   1 0 1      0.000000      0.000000      0.000000
     2   0 2 0     -1.552796      0.000000     21.780000
     2   0 1 1      0.000000      0.000000      0.000000
     2   0 0 2     -2.063291      0.000000      0.000000


 Parallel integral file used       8 records with       0 large values

 ------------------------------------
     Number of active orbitals     10
     Number of active alpha electrons      1
     Number of active beta electrons       1
 ------------------------------------
                   NWChem Extensible Many-Electron Theory Module
                   ---------------------------------------------

              ======================================================
                   This portion of the program was automatically
                  generated by a Tensor Contraction Engine (TCE).
                  The development of this portion of the program
                 and TCE was supported by US Department of Energy,
                Office of Science, Office of Basic Energy Science.
                      TCE is a product of Battelle and PNNL.
              Please cite: S.Hirata, J.Phys.Chem.A 107, 9887 (2003).
              ======================================================

                                        H2


            General Information
            -------------------
      Number of processors :     1
         Wavefunction type : Restricted Hartree-Fock
          No. of electrons :     2
           Alpha electrons :     1
            Beta electrons :     1
           No. of orbitals :   140
            Alpha orbitals :    70
             Beta orbitals :    70
        Alpha frozen cores :     0
         Beta frozen cores :     0
     Alpha frozen virtuals :    60
      Beta frozen virtuals :    60
         Spin multiplicity : singlet 
    Number of AO functions :    70
       Number of AO shells :    20
        Use of symmetry is : off
      Symmetry adaption is : off
         Schwarz screening : 0.10D-09

          Correlation Information
          -----------------------
          Calculation type : Coupled-cluster singles & doubles                           
   Perturbative correction : none                                                        
            Max iterations :      300
        Residual threshold : 0.10D-06
     T(0) DIIS level shift : 0.40D+00
     L(0) DIIS level shift : 0.00D+00
     T(1) DIIS level shift : 0.00D+00
     L(1) DIIS level shift : 0.00D+00
     T(R) DIIS level shift : 0.00D+00
     T(I) DIIS level shift : 0.00D+00
   CC-T/L Amplitude update :  5-th order DIIS
                I/O scheme : Global Array Library
        L-threshold :  0.10D-06
        EOM-threshold :  0.10D-06
 no EOMCCSD initial starts read in
 TCE RESTART OPTIONS
 READ_INT:   F
 WRITE_INT:  F
 READ_TA:    F
 WRITE_TA:   F
 READ_XA:    F
 WRITE_XA:   F
 READ_IN3:   F
 WRITE_IN3:  F
 SLICE:      F
 D4D5:       F
 quantumc:   T
 qrotation:  F
 pwtce:      F
 qducc:      F
 nacto:                         0
 nrotv:                         0
 nrot:                          0

            Memory Information
            ------------------
          Available GA space size is    1610607836 doubles
          Available MA space size is    1610610644 doubles

 Maximum block size supplied by input
 Maximum block size         1 doubles

 tile_dim =      1

 Block   Spin    Irrep     Size     Offset   Alpha
 -------------------------------------------------
   1    alpha     a      1 doubles       0       1
   2    beta      a      1 doubles       1       1
   3    alpha     a      1 doubles       2       3
   4    alpha     a      1 doubles       3       4
   5    alpha     a      1 doubles       4       5
   6    alpha     a      1 doubles       5       6
   7    alpha     a      1 doubles       6       7
   8    alpha     a      1 doubles       7       8
   9    alpha     a      1 doubles       8       9
  10    alpha     a      1 doubles       9      10
  11    alpha     a      1 doubles      10      11
  12    beta      a      1 doubles      11       3
  13    beta      a      1 doubles      12       4
  14    beta      a      1 doubles      13       5
  15    beta      a      1 doubles      14       6
  16    beta      a      1 doubles      15       7
  17    beta      a      1 doubles      16       8
  18    beta      a      1 doubles      17       9
  19    beta      a      1 doubles      18      10
  20    beta      a      1 doubles      19      11

 Global array virtual files algorithm will be used

 Parallel file system coherency ......... OK

 Integral file          = ./H2.aoints.0
 Record size in doubles =  65536        No. of integs per rec  =  43688
 Max. records in memory =     99        Max. records in file   = 280249
 No. of bits per label  =      8        No. of bits per value  =     64


 #quartets = 1.610D+04 #integrals = 3.798D+05 #direct =  0.0% #cached =100.0%


 Fock matrix recomputed
 1-e file size   =              100
 1-e file name   = ./H2.f1
 Cpu & wall time / sec            0.0            0.0
 4-electron integrals stored in orbital form

 v2    file size   =             1540
 4-index algorithm nr.  13 is used
 imaxsize =       30
 imaxsize ichop =        0
 begin_one_electron_integrals
    1    1        -0.6570970618
    3    1         0.0270339607
    6    1        -0.0005317064
    8    1        -0.0007349022
    2    2        -0.6455378897
    7    2        -0.0020625193
    1    3         0.0270339607
    3    3        -0.0756912723
    6    3        -0.0967287486
    7    3         0.0000000004
    8    3        -0.1361429265
    4    4        -0.0077237597
    5    5        -0.0077237597
    1    6        -0.0005317064
    3    6        -0.0967287486
    6    6         0.2081521023
    7    6        -0.0000000022
    8    6         0.3467587130
    2    7        -0.0020625193
    3    7         0.0000000004
    6    7        -0.0000000022
    7    7         0.7128660172
    8    7        -0.0000000024
    1    8        -0.0007349022
    3    8        -0.1361429265
    6    8         0.3467587130
    7    8        -0.0000000024
    8    8         1.3759547519
    9    9         0.6694923041
   10   10         0.6694923041
 end_one_electron_integrals
 begin_two_electron_integrals
    1    1    1    1        0.3829489767
    2    1    2    1        0.2368203478
    3    1    1    1       -0.0081026857
    3    1    3    1        0.0415663140
    3    1    2    2       -0.0053323037
    4    1    4    1        0.0406480544
    5    1    5    1        0.0406480544
    6    1    1    1        0.0854167750
    6    1    3    1       -0.0037446329
    6    1    6    1        0.0636365911
    6    1    2    2        0.0891294483
    6    1    3    3        0.0342858478
    6    1    4    4        0.0327087406
    6    1    5    5        0.0327087406
    7    1    2    1        0.0733733267
    7    1    7    1        0.0664491317
    7    1    2    2        0.0000000001
    7    1    3    2       -0.0063269350
    7    1    6    2        0.0651434348
    8    1    1    1       -0.0344906307
    8    1    2    1        0.0000000002
    8    1    3    1       -0.0143976616
    8    1    6    1       -0.0193847358
    8    1    7    1        0.0000000002
    8    1    8    1        0.0348597039
    8    1    2    2       -0.0367897533
    8    1    3    2       -0.0000000001
    8    1    6    2        0.0000000003
    8    1    7    2       -0.0182930126
    8    1    3    3        0.0055083703
    8    1    6    3       -0.0058869300
    8    1    4    4       -0.0131463183
    8    1    5    5       -0.0131463183
    8    1    6    6       -0.0233242014
    8    1    7    6        0.0000000003
    8    1    7    7       -0.0303783981
    9    1    9    1        0.0586780143
    9    1    4    2       -0.0419090331
    9    1    5    2       -0.0131758341
    9    1    7    4        0.0113287452
    9    1    7    5        0.0035616586
   10    1   10    1        0.0586780143
   10    1    4    2        0.0131758341
   10    1    5    2       -0.0419090331
   10    1    7    4       -0.0035616586
   10    1    7    5        0.0113287452
    2    2    1    1        0.3882093422
    2    2    2    2        0.3939699765
    3    2    2    1        0.0204647792
    3    2    3    2        0.0333979431
    4    2    4    2        0.0373729104
    5    2    5    2        0.0373729104
    6    2    2    1        0.0916094074
    6    2    3    2       -0.0032116003
    6    2    6    2        0.0672330822
    7    2    1    1        0.0779430311
    7    2    2    1        0.0000000001
    7    2    3    1       -0.0081802325
    7    2    6    1        0.0654460577
    7    2    2    2        0.0812549603
    7    2    7    2        0.0701818121
    7    2    3    3        0.0285231738
    7    2    6    3       -0.0108980073
    7    2    4    4        0.0256580559
    7    2    5    5        0.0256580559
    7    2    6    6        0.0809559203
    8    2    1    1        0.0000000003
    8    2    2    1       -0.0382018945
    8    2    3    1       -0.0000000002
    8    2    6    1        0.0000000003
    8    2    7    1       -0.0188600866
    8    2    2    2        0.0000000003
    8    2    3    2       -0.0139479061
    8    2    6    2       -0.0211907949
    8    2    7    2        0.0000000002
    8    2    8    2        0.0360638341
    8    2    3    3        0.0000000002
    8    2    7    3       -0.0021286516
    8    2    4    4        0.0000000002
    8    2    5    5        0.0000000002
    8    2    6    6        0.0000000004
    8    2    7    6       -0.0285897361
    8    2    7    7        0.0000000004
    9    2    4    1       -0.0448062062
    9    2    5    1       -0.0140866800
    9    2    9    2        0.0626812277
    9    2    4    3        0.0075628295
    9    2    5    3        0.0023776876
    9    2    6    4        0.0078679318
    9    2    8    4        0.0065818365
    9    2    6    5        0.0024736091
    9    2    8    5        0.0020692719
   10    2    4    1        0.0140866800
   10    2    5    1       -0.0448062062
   10    2   10    2        0.0626812277
   10    2    4    3       -0.0023776876
   10    2    5    3        0.0075628295
   10    2    6    4       -0.0024736091
   10    2    8    4       -0.0020692719
   10    2    6    5        0.0078679318
   10    2    8    5        0.0065818365
    3    3    1    1        0.3109573156
    3    3    2    1       -0.0000000003
    3    3    3    1       -0.0265009364
    3    3    2    2        0.3108837677
    3    3    3    3        0.3169143864
    4    3    4    1       -0.0063446043
    4    3    4    3        0.0145586989
    5    3    5    1       -0.0063446043
    5    3    5    3        0.0145586989
    6    3    1    1       -0.0059575130
    6    3    2    1       -0.0000000001
    6    3    3    1       -0.0074728020
    6    3    6    1       -0.0113014203
    6    3    2    2       -0.0076648719
    6    3    3    3        0.0056032220
    6    3    6    3        0.0160734288
    6    3    4    4        0.0017838938
    6    3    5    5        0.0017838938
    7    3    1    1        0.0000000002
    7    3    2    1       -0.0251549700
    7    3    6    1        0.0000000001
    7    3    7    1       -0.0135753829
    7    3    2    2        0.0000000002
    7    3    3    2       -0.0064368510
    7    3    6    2       -0.0137152885
    7    3    7    2        0.0000000001
    7    3    3    3        0.0000000002
    7    3    7    3        0.0133518019
    7    3    4    4        0.0000000001
    7    3    5    5        0.0000000001
    7    3    6    6        0.0000000002
    8    3    1    1       -0.0487996897
    8    3    2    1       -0.0000000006
    8    3    3    1        0.0332475903
    8    3    6    1       -0.0279736973
    8    3    8    1       -0.0053322602
    8    3    2    2       -0.0484671115
    8    3    3    2       -0.0000000001
    8    3    6    2       -0.0000000002
    8    3    7    2       -0.0282212462
    8    3    8    2       -0.0000000002
    8    3    3    3       -0.0408455072
    8    3    6    3        0.0016600963
    8    3    8    3        0.0502395016
    8    3    4    4       -0.0358522981
    8    3    5    5       -0.0358522981
    8    3    6    6       -0.0557598177
    8    3    7    6       -0.0000000003
    8    3    7    7       -0.0674075792
    9    3    9    1       -0.0100782762
    9    3    4    2        0.0069376367
    9    3    5    2        0.0021811324
    9    3    9    3        0.0113930511
    9    3    7    4       -0.0018165840
    9    3    7    5       -0.0005711182
   10    3   10    1       -0.0100782762
   10    3    4    2       -0.0021811324
   10    3    5    2        0.0069376367
   10    3   10    3        0.0113930511
   10    3    7    4        0.0005711182
   10    3    7    5       -0.0018165840
    4    4    1    1        0.3110332985
    4    4    3    1       -0.0192712989
    4    4    2    2        0.3126457710
    4    4    3    3        0.2823747868
    4    4    4    4        0.3072795065
    5    4    5    4        0.0139578597
    6    4    4    1       -0.0152870846
    6    4    4    3        0.0020990250
    6    4    6    4        0.0170438800
    7    4    4    2       -0.0169664345
    7    4    7    4        0.0184768994
    8    4    4    1       -0.0046728881
    8    4    4    3       -0.0010538721
    8    4    6    4        0.0019693519
    8    4    8    4        0.0067046120
    9    4    2    1       -0.1534084263
    9    4    7    1       -0.0356531788
    9    4    8    1       -0.0000000002
    9    4    3    2       -0.0009436792
    9    4    6    2       -0.0492067456
    9    4    8    2        0.0174290264
    9    4    3    3        0.0000000002
    9    4    7    3        0.0131238075
    9    4    8    3        0.0000000004
    9    4    9    4        0.1259400119
    9    4    7    6       -0.1317586893
    9    4    8    6       -0.0000000006
    9    4    7    7        0.0000000004
    9    4    8    7       -0.0017492054
    9    4    8    8       -0.0000000003
   10    4    2    1        0.0482302698
   10    4    7    1        0.0112090481
   10    4    3    2        0.0002966845
   10    4    6    2        0.0154701712
   10    4    8    2       -0.0054795337
   10    4    7    3       -0.0041260105
   10    4    8    3       -0.0000000001
   10    4    9    4       -0.0360932440
   10    4   10    4        0.0224838302
   10    4    9    5       -0.0002109713
   10    4    7    6        0.0414237815
   10    4    8    6        0.0000000002
   10    4    7    7       -0.0000000001
   10    4    8    7        0.0005499349
    5    5    1    1        0.3110332985
    5    5    3    1       -0.0192712989
    5    5    2    2        0.3126457710
    5    5    3    3        0.2823747868
    5    5    4    4        0.2793637871
    5    5    5    5        0.3072795065
    6    5    5    1       -0.0152870846
    6    5    5    3        0.0020990250
    6    5    6    5        0.0170438800
    7    5    5    2       -0.0169664345
    7    5    7    5        0.0184768994
    8    5    5    1       -0.0046728881
    8    5    5    3       -0.0010538721
    8    5    6    5        0.0019693519
    8    5    8    5        0.0067046120
    9    5    2    1       -0.0482302698
    9    5    7    1       -0.0112090481
    9    5    3    2       -0.0002966845
    9    5    6    2       -0.0154701712
    9    5    8    2        0.0054795337
    9    5    7    3        0.0041260105
    9    5    8    3        0.0000000001
    9    5    9    4        0.0360932440
    9    5    9    5        0.0224838302
    9    5    7    6       -0.0414237815
    9    5    8    6       -0.0000000002
    9    5    7    7        0.0000000001
    9    5    8    7       -0.0005499349
   10    5    2    1       -0.1534084263
   10    5    7    1       -0.0356531788
   10    5    8    1       -0.0000000002
   10    5    3    2       -0.0009436792
   10    5    6    2       -0.0492067456
   10    5    8    2        0.0174290264
   10    5    3    3        0.0000000002
   10    5    7    3        0.0131238075
   10    5    8    3        0.0000000004
   10    5    9    4        0.1036671530
   10    5   10    4       -0.0360932440
   10    5    9    5        0.0360932440
   10    5   10    5        0.1259400119
   10    5    7    6       -0.1317586893
   10    5    8    6       -0.0000000006
   10    5    7    7        0.0000000004
   10    5    8    7       -0.0017492054
   10    5    8    8       -0.0000000003
    6    6    1    1        0.3534283997
    6    6    2    1        0.0000000001
    6    6    3    1       -0.0287901052
    6    6    6    1        0.0807134330
    6    6    2    2        0.3564303546
    6    6    3    3        0.2991733560
    6    6    6    3       -0.0018054310
    6    6    4    4        0.2941328604
    6    6    5    5        0.2941328604
    6    6    6    6        0.3504892870
    7    6    1    1       -0.0000000002
    7    6    2    1        0.2038700232
    7    6    3    1        0.0000000001
    7    6    7    1        0.0850077098
    7    6    2    2       -0.0000000001
    7    6    3    2       -0.0011436208
    7    6    6    2        0.0951771001
    7    6    3    3       -0.0000000005
    7    6    6    3       -0.0000000001
    7    6    7    3       -0.0227447040
    7    6    4    4       -0.0000000002
    7    6    5    5       -0.0000000002
    7    6    7    6        0.2023477429
    8    6    1    1       -0.0045525702
    8    6    2    1        0.0000000009
    8    6    3    1       -0.0285829981
    8    6    6    1       -0.0096249397
    8    6    7    1        0.0000000003
    8    6    8    1        0.0271331502
    8    6    2    2       -0.0070107979
    8    6    6    2        0.0000000005
    8    6    7    2       -0.0088338380
    8    6    3    3        0.0228481787
    8    6    6    3       -0.0011466276
    8    6    8    3       -0.0246192863
    8    6    4    4        0.0135234737
    8    6    5    5        0.0135234737
    8    6    6    6        0.0082930778
    8    6    7    6        0.0000000008
    8    6    8    6        0.0365698719
    8    6    7    7        0.0066887815
    9    6    9    1        0.0168101841
    9    6    4    2       -0.0066367915
    9    6    5    2       -0.0020865493
    9    6    9    3       -0.0040215873
    9    6    7    4       -0.0079799163
    9    6    7    5       -0.0025088160
    9    6    9    6        0.0149467766
   10    6   10    1        0.0168101841
   10    6    4    2        0.0020865493
   10    6    5    2       -0.0066367915
   10    6   10    3       -0.0040215873
   10    6    7    4        0.0025088160
   10    6    7    5       -0.0079799163
   10    6   10    6        0.0149467766
    7    7    1    1        0.3959255447
    7    7    2    1       -0.0000000005
    7    7    3    1       -0.0320805684
    7    7    6    1        0.1065855558
    7    7    7    1       -0.0000000001
    7    7    2    2        0.4006043107
    7    7    3    2        0.0000000002
    7    7    6    2       -0.0000000001
    7    7    7    2        0.1073971863
    7    7    3    3        0.3190434211
    7    7    6    3       -0.0081016320
    7    7    7    3        0.0000000004
    7    7    4    4        0.3184772422
    7    7    5    5        0.3184772422
    7    7    6    6        0.3917685217
    7    7    7    6       -0.0000000008
    7    7    7    7        0.4483004680
    8    7    1    1        0.0000000002
    8    7    2    1       -0.0169917447
    8    7    6    1        0.0000000002
    8    7    7    1       -0.0109059909
    8    7    2    2        0.0000000002
    8    7    3    2       -0.0190622949
    8    7    6    2       -0.0112459781
    8    7    7    2        0.0000000001
    8    7    8    2        0.0252460099
    8    7    7    3       -0.0028177153
    8    7    6    6        0.0000000003
    8    7    7    6       -0.0079010762
    8    7    7    7        0.0000000001
    8    7    8    7        0.0304523698
    9    7    4    1        0.0005997318
    9    7    5    1        0.0001885504
    9    7    9    2        0.0092310423
    9    7    4    3        0.0005140771
    9    7    5    3        0.0001616214
    9    7    6    4       -0.0114760017
    9    7    8    4       -0.0008504766
    9    7    6    5       -0.0036079547
    9    7    8    5       -0.0002673824
    9    7    9    7        0.0173898370
   10    7    4    1       -0.0001885504
   10    7    5    1        0.0005997318
   10    7   10    2        0.0092310423
   10    7    4    3       -0.0001616214
   10    7    5    3        0.0005140771
   10    7    6    4        0.0036079547
   10    7    8    4        0.0002673824
   10    7    6    5       -0.0114760017
   10    7    8    5       -0.0008504766
   10    7   10    7        0.0173898370
    8    8    1    1        0.3687507437
    8    8    2    1        0.0000000002
    8    8    3    1       -0.0306663563
    8    8    6    1        0.0822481500
    8    8    7    1        0.0000000001
    8    8    8    1       -0.0004262233
    8    8    2    2        0.3718686424
    8    8    3    2       -0.0000000003
    8    8    6    2        0.0000000002
    8    8    7    2        0.0766448562
    8    8    8    2        0.0000000006
    8    8    3    3        0.3349697321
    8    8    6    3       -0.0125665518
    8    8    7    3        0.0000000002
    8    8    8    3       -0.0723649659
    8    8    4    4        0.3047996645
    8    8    5    5        0.3047996645
    8    8    6    6        0.3532757247
    8    8    8    6        0.0259303557
    8    8    7    7        0.3918022470
    8    8    8    7        0.0000000004
    8    8    8    8        0.4087646999
    9    8    9    1       -0.0119428562
    9    8    4    2        0.0083547223
    9    8    5    2        0.0026266517
    9    8    9    2        0.0000000001
    9    8    9    3       -0.0071335436
    9    8    7    4       -0.0031937545
    9    8    7    5       -0.0010040885
    9    8    9    6       -0.0013848671
    9    8    9    8        0.0156777958
   10    8   10    1       -0.0119428562
   10    8    4    2       -0.0026266517
   10    8    5    2        0.0083547223
   10    8   10    2        0.0000000001
   10    8   10    3       -0.0071335436
   10    8    7    4        0.0010040885
   10    8    7    5       -0.0031937545
   10    8   10    6       -0.0013848671
   10    8   10    8        0.0156777958
    9    9    1    1        0.3957839346
    9    9    3    1       -0.0298360504
    9    9    6    1        0.0856372183
    9    9    8    1       -0.0277822513
    9    9    2    2        0.4002780577
    9    9    7    2        0.0776224763
    9    9    8    2        0.0000000004
    9    9    3    3        0.3239114296
    9    9    6    3       -0.0068643674
    9    9    7    3        0.0000000003
    9    9    8    3       -0.0668430609
    9    9    4    4        0.3462520563
    9    9    5    4        0.0077128297
    9    9    5    5        0.3241443203
    9    9    6    6        0.3669394099
    9    9    7    6       -0.0000000002
    9    9    8    6        0.0134149534
    9    9    7    7        0.4123808258
    9    9    8    7        0.0000000002
    9    9    8    8        0.3862450724
    9    9    9    9        0.4586161265
   10    9    4    4       -0.0077128297
   10    9    5    4        0.0110538680
   10    9    5    5        0.0077128297
   10    9   10    9        0.0220763931
   10   10    1    1        0.3957839346
   10   10    3    1       -0.0298360504
   10   10    6    1        0.0856372183
   10   10    8    1       -0.0277822513
   10   10    2    2        0.4002780577
   10   10    7    2        0.0776224763
   10   10    8    2        0.0000000004
   10   10    3    3        0.3239114296
   10   10    6    3       -0.0068643674
   10   10    7    3        0.0000000003
   10   10    8    3       -0.0668430609
   10   10    4    4        0.3241443203
   10   10    5    4       -0.0077128297
   10   10    5    5        0.3462520563
   10   10    6    6        0.3669394099
   10   10    7    6       -0.0000000002
   10   10    8    6        0.0134149534
   10   10    7    7        0.4123808258
   10   10    8    7        0.0000000002
   10   10    8    8        0.3862450724
   10   10    9    9        0.4144633404
   10   10   10   10        0.4586161265
 end_two_electron_integrals
 enrep_tce =   0.15151515151515149     
  EHF(A)             =        -0.77973000
  EHF(total)         =        -0.77973000
  Shift (HFtot-HFA)  =        -0.00000000
 Cpu & wall time / sec            1.5            1.8
 T1-number-of-tasks                    9

 t1 file size   =                9
 t1 file name   = ./H2.t1
 t1 file handle =       -998
 T2-number-of-boxes                  126

 t2 file size   =              126
 t2 file name   = ./H2.t2
 t2 file handle =       -996
CCSD iterations
 ---------------------------------------------------------
 Iter          Residuum       Correlation     Cpu    Wall 
 ---------------------------------------------------------
NEW TASK SCHEDULING
CCSD_T1_NTS --- OK
CCSD_T2_NTS --- OK
    1   2.2618564726520  -0.5796936058944     0.7     0.8
    2   1.7831153912478  -0.4297302231370     0.8     0.8
    3   2.9212210152951   0.0043874572756     0.7     0.8
    4   4.5200771601574  -0.2671562065873     0.7     0.7
    5  78.5100570655215   1.3153760117288     0.4     0.6
 MICROCYCLE DIIS UPDATE:                    5                    5
    6   0.7809304785699  -0.3535794269752     0.4     0.6
    7   0.5888541658363  -0.2740095351275     0.5     0.6
    8   0.8759446012382  -0.2371445521006     0.5     0.6
    9   1.5213469949288  -0.2015932010245     0.6     0.6
   10   3.1606574266869   0.1157193626834     0.3     0.6
 MICROCYCLE DIIS UPDATE:                   10                    5
   11   0.1115338555764  -0.2529944761329     0.6     0.6
   12   0.1597321361741  -0.2346299646847     0.6     0.6
   13   0.3270235406195  -0.2277435842875     0.6     0.6
   14   0.7442473689979  -0.2311702794515     0.6     0.6
   15   1.6819979788974  -0.1850436426937     0.3     0.6
 MICROCYCLE DIIS UPDATE:                   15                    5
   16   0.0142683078656  -0.2233321600676     0.5     0.6
   17   0.0256624590878  -0.2217533641440     0.5     0.6
   18   0.0545853026782  -0.2207370326460     0.3     0.6
   19   0.1229649311699  -0.2228193549979     0.3     0.6
   20   0.2764034427617  -0.2135911012929     0.7     0.7
 MICROCYCLE DIIS UPDATE:                   20                    5
   21   0.0009700503654  -0.2206526450398     0.8     0.9
   22   0.0013059235811  -0.2205404024134     0.6     0.6
   23   0.0027056333835  -0.2204883333948     0.3     0.6
   24   0.0060290564941  -0.2205511177067     0.8     0.9
   25   0.0137121443678  -0.2201754714151     0.7     0.9
 MICROCYCLE DIIS UPDATE:                   25                    5
   26   0.0000789314651  -0.2204585394465     0.5     0.6
   27   0.0001245478667  -0.2204439284016     0.6     0.6
   28   0.0002942007847  -0.2204452356465     0.6     0.6
   29   0.0007326666159  -0.2204332472137     0.3     0.6
   30   0.0018541145846  -0.2204454203572     0.6     0.6
 MICROCYCLE DIIS UPDATE:                   30                    5
   31   0.0000030243835  -0.2204360120113     0.6     0.6
   32   0.0000052028672  -0.2204360977570     0.3     0.6
   33   0.0000115090912  -0.2204354101158     0.4     0.6
   34   0.0000262155552  -0.2204365520331     0.5     0.6
   35   0.0000595240977  -0.2204334915044     0.6     0.6
 MICROCYCLE DIIS UPDATE:                   35                    5
   36   0.0000002924298  -0.2204356740822     0.3     0.7
   37   0.0000003064693  -0.2204356265144     0.1     0.6
   38   0.0000005426414  -0.2204356062667     0.4     0.6
   39   0.0000012092323  -0.2204355849266     0.4     0.6
   40   0.0000029207410  -0.2204356025186     0.3     0.6
 MICROCYCLE DIIS UPDATE:                   40                    5
   41   0.0000000087970  -0.2204355780337     0.6     0.6
 -----------------------------------------------------------------
 Iterations converged
 CCSD correlation energy / hartree =        -0.220435578033687
 CCSD total energy / hartree       =        -1.000165576541731

 Singles contributions

 Doubles contributions
     2a   (alpha)     2a   (beta ) ---     1a   (alpha)     1a   (beta )       -0.9278235098
 Ground state specification:
 exp(T)|Ref>~(1+T)|Ref>
 ------- a(p)+/a(q) strings ----------

 singles norm

 doubles norm

 Reference string
  0.73306681862886469      :(1a)+ (1b)+ |0>

 Singles strings

 Doubles strings
 -0.68015662859767478      :(2a)+ (2b)+ (1b)  (1a)  (1a)+ (1b)+ |0>
 -------------------------------------

 Parallel integral file used       9 records with       0 large values


 Task  times  cpu:       22.8s     wall:       28.7s


                                NWChem Input Module
                                -------------------


 Summary of allocated global arrays
-----------------------------------
  No active global arrays


MA_summarize_allocated_blocks: starting scan ...
MA_summarize_allocated_blocks: scan completed: 0 heap blocks, 0 stack blocks
MA usage statistics:

	allocation statistics:
					      heap	     stack
					      ----	     -----
	current number of blocks	         0	         0
	maximum number of blocks	        18	        42
	current total bytes		         0	         0
	maximum total bytes		  51983048	  61995224
	maximum total K-bytes		     51984	     61996
	maximum total M-bytes		        52	        62


                                     CITATION
                                     --------
                Please cite the following reference when publishing
                           results obtained with NWChem:

          E. Apra, E. J. Bylaska, W. A. de Jong, N. Govind, K. Kowalski,
       T. P. Straatsma, M. Valiev, H. J. J. van Dam, Y. Alexeev, J. Anchell,
       V. Anisimov, F. W. Aquino, R. Atta-Fynn, J. Autschbach, N. P. Bauman,
     J. C. Becca, D. E. Bernholdt, K. Bhaskaran-Nair, S. Bogatko, P. Borowski,
         J. Boschen, J. Brabec, A. Bruner, E. Cauet, Y. Chen, G. N. Chuev,
      C. J. Cramer, J. Daily, M. J. O. Deegan, T. H. Dunning Jr., M. Dupuis,
   K. G. Dyall, G. I. Fann, S. A. Fischer, A. Fonari, H. Fruchtl, L. Gagliardi,
      J. Garza, N. Gawande, S. Ghosh, K. Glaesemann, A. W. Gotz, J. Hammond,
       V. Helms, E. D. Hermes, K. Hirao, S. Hirata, M. Jacquelin, L. Jensen,
   B. G. Johnson, H. Jonsson, R. A. Kendall, M. Klemm, R. Kobayashi, V. Konkov,
      S. Krishnamoorthy, M. Krishnan, Z. Lin, R. D. Lins, R. J. Littlefield,
      A. J. Logsdail, K. Lopata, W. Ma, A. V. Marenich, J. Martin del Campo,
   D. Mejia-Rodriguez, J. E. Moore, J. M. Mullin, T. Nakajima, D. R. Nascimento,
    J. A. Nichols, P. J. Nichols, J. Nieplocha, A. Otero-de-la-Roza, B. Palmer,
    A. Panyala, T. Pirojsirikul, B. Peng, R. Peverati, J. Pittner, L. Pollack,
   R. M. Richard, P. Sadayappan, G. C. Schatz, W. A. Shelton, D. W. Silverstein,
   D. M. A. Smith, T. A. Soares, D. Song, M. Swart, H. L. Taylor, G. S. Thomas,
            V. Tipparaju, D. G. Truhlar, K. Tsemekhman, T. Van Voorhis,
      A. Vazquez-Mayagoitia, P. Verma, O. Villa, A. Vishnu, K. D. Vogiatzis,
        D. Wang, J. H. Weare, M. J. Williamson, T. L. Windus, K. Wolinski,
        A. T. Wong, Q. Wu, C. Yang, Q. Yu, M. Zacharias, Z. Zhang, Y. Zhao,
                                and R. J. Harrison
                        "NWChem: Past, present, and future
                         J. Chem. Phys. 152, 184102 (2020)
                               doi:10.1063/5.0004997

                                      AUTHORS
                                      -------
  E. Apra, E. J. Bylaska, N. Govind, K. Kowalski, M. Valiev, D. Mejia-Rodriguez,
       A. Kunitsa, N. P. Bauman, A. Panyala, W. A. de Jong, T. P. Straatsma,
        H. J. J. van Dam, D. Wang, T. L. Windus, J. Hammond, J. Autschbach,
    K. Bhaskaran-Nair, J. Brabec, K. Lopata, S. A. Fischer, S. Krishnamoorthy,
     M. Jacquelin, W. Ma, M. Klemm, O. Villa, Y. Chen, V. Anisimov, F. Aquino,
    S. Hirata, M. T. Hackler, Eric Hermes, L. Jensen, J. E. Moore, J. C. Becca,
      V. Konjkov, T. Risthaus, M. Malagoli, A. Marenich, A. Otero-de-la-Roza,
        J. Mullin, P. Nichols, R. Peverati, J. Pittner, Y. Zhao, P.-D. Fan,
        A. Fonari, M. J. Williamson, R. J. Harrison, J. R. Rehr, M. Dupuis,
     D. Silverstein, D. M. A. Smith, J. Nieplocha, V. Tipparaju, M. Krishnan,
     B. E. Van Kuiken, A. Vazquez-Mayagoitia, M. Swart, Q. Wu, T. Van Voorhis,
     A. A. Auer, M. Nooijen, L. D. Crosby, E. Brown, G. Cisneros, G. I. Fann,
   H. Fruchtl, J. Garza, K. Hirao, R. A. Kendall, J. A. Nichols, K. Tsemekhman,
    K. Wolinski, J. Anchell, D. E. Bernholdt, P. Borowski, T. Clark, D. Clerc,
   H. Dachsel, M. J. O. Deegan, K. Dyall, D. Elwood, E. Glendening, M. Gutowski,
   A. C. Hess, J. Jaffe, B. G. Johnson, J. Ju, R. Kobayashi, R. Kutteh, Z. Lin,
   R. Littlefield, X. Long, B. Meng, T. Nakajima, S. Niu, L. Pollack, M. Rosing,
   K. Glaesemann, G. Sandrone, M. Stave, H. Taylor, G. Thomas, J. H. van Lenthe,
                               A. T. Wong, Z. Zhang.

 Total times  cpu:       24.3s     wall:       30.9s
