 argument  1 = input.nw
  NWChem w/ OpenMP: maximum threads =    1



============================== echo of input deck ==============================
 echo
 start H2
 title "H2"

 memory total 24 gb

 geometry units bohr
 symmetry c1
        H  0.00000000  0.00000000  0.00000000
        H  0.00000000  7.10  0.00000000
 end

 basis
   * library cc-pVQZ
 end

 mcscf
   active  10
   actelec 2
   multiplicity 1
   maxiter 40
   vectors input H2.mos
   vectors output H2.mos
 end

 task mcscf

 scf
   vectors input H2.mos
   vectors output H2-7.10.mos
   noscf
 end

 tce
   2eorb
   2emet 13
   ccsd
   maxiter 300
   lshift 0.4
 end

 set tce:print_integrals T
 set tce:qorb 10
 set tce:qela 1
 set tce:qelb 1

# set tce:qducc T
# set tce:nactv 1
# set tce:nonhf T
# set tce:ducc_model 6

 set tce:printtol 0.02

 task tce
================================================================================


                                         
                                         


             Northwest Computational Chemistry Package (NWChem) 7.0.1
             --------------------------------------------------------


                    Environmental Molecular Sciences Laboratory
                       Pacific Northwest National Laboratory
                                Richland, WA 99352

                              Copyright (c) 1994-2020
                       Pacific Northwest National Laboratory
                            Battelle Memorial Institute

             NWChem is an open-source computational chemistry package
                        distributed under the terms of the
                      Educational Community License (ECL) 2.0
             A copy of the license is included with this distribution
                              in the LICENSE.TXT file

                                  ACKNOWLEDGMENT
                                  --------------

            This software and its documentation were developed at the
            EMSL at Pacific Northwest National Laboratory, a multiprogram
            national laboratory, operated for the U.S. Department of Energy
            by Battelle under Contract Number DE-AC05-76RL01830. Support
            for this work was provided by the Department of Energy Office
            of Biological and Environmental Research, Office of Basic
            Energy Sciences, and the Office of Advanced Scientific Computing.


           Job information
           ---------------

    hostname        = WE46210
    program         = /home/baum612/code/nwchem/bin/LINUX64/nwchem
    date            = Fri Nov 10 19:13:53 2023

    compiled        = Mon_Nov_06_10:06:57_2023
    source          = /home/baum612/code/nwchem
    nwchem branch   = 7.0.0
    nwchem revision = nwchem_on_git-4191-g39d87d64de
    ga revision     = 5.8.1
    use scalapack   = F
    input           = input.nw
    prefix          = H2.
    data base       = ./H2.db
    status          = startup
    nproc           =        1
    time left       =     -1s



           Memory information
           ------------------

    heap     =  805306362 doubles =   6144.0 Mbytes
    stack    =  805306367 doubles =   6144.0 Mbytes
    global   = 1610612736 doubles =  12288.0 Mbytes (distinct from heap & stack)
    total    = 3221225465 doubles =  24576.0 Mbytes
    verify   = yes
    hardfail = no 


           Directory information
           ---------------------

  0 permanent = .
  0 scratch   = .




                                NWChem Input Module
                                -------------------


                                        H2
                                        --
 Turning off AUTOSYM since
 SYMMETRY directive was detected!


          ------
          auto-z
          ------
     1 autoz failed with cvr_scaling = 1.2 changing to 1.3
     2 autoz failed with cvr_scaling = 1.3 changing to 1.4
     3 autoz failed with cvr_scaling = 1.4 changing to 1.5
     4 autoz failed with cvr_scaling = 1.5 changing to 1.6
     5 autoz failed with cvr_scaling = 1.6 changing to 1.7

 AUTOZ failed to generate good internal coordinates.
 Cartesian coordinates will be used in optimizations.



                             Geometry "geometry" -> ""
                             -------------------------

 Output coordinates in a.u. (scale by  1.000000000 to convert to a.u.)

  No.       Tag          Charge          X              Y              Z
 ---- ---------------- ---------- -------------- -------------- --------------
    1 H                    1.0000     0.00000000    -3.55000000     0.00000000
    2 H                    1.0000     0.00000000     3.55000000     0.00000000

      Atomic Mass 
      ----------- 

      H                  1.007825


 Effective nuclear repulsion energy (a.u.)       0.1408450704

            Nuclear Dipole moment (a.u.) 
            ----------------------------
        X                 Y               Z
 ---------------- ---------------- ----------------
     0.0000000000     0.0000000000     0.0000000000


            XYZ format geometry
            -------------------
     2
 geometry
 H                     0.00000000    -1.87857923     0.00000000
 H                     0.00000000     1.87857923     0.00000000



 Summary of "ao basis" -> "" (cartesian)
 ------------------------------------------------------------------------------
       Tag                 Description            Shells   Functions and Types
 ---------------- ------------------------------  ------  ---------------------
 *                          cc-pVQZ                   on all atoms 


                      Basis "ao basis" -> "ao basis" (cartesian)
                      -----
  H (Hydrogen)
  ------------
            Exponent  Coefficients 
       -------------- ---------------------------------------------------------
  1 S  8.26400000E+01  0.002006
  1 S  1.24100000E+01  0.015343
  1 S  2.82400000E+00  0.075579

  2 S  7.97700000E-01  1.000000

  3 S  2.58100000E-01  1.000000

  4 S  8.98900000E-02  1.000000

  5 P  2.29200000E+00  1.000000

  6 P  8.38000000E-01  1.000000

  7 P  2.92000000E-01  1.000000

  8 D  2.06200000E+00  1.000000

  9 D  6.62000000E-01  1.000000

 10 F  1.39700000E+00  1.000000



 Summary of "ao basis" -> "ao basis" (cartesian)
 ------------------------------------------------------------------------------
       Tag                 Description            Shells   Functions and Types
 ---------------- ------------------------------  ------  ---------------------
 H                          cc-pVQZ                 10       35   4s3p2d1f



                            NWChem Direct MCSCF Module
                            --------------------------


                                        H2


     -----------------------------------
       Basis functions:             70
       Inactive shells:              0
       Active shells:               10
       Active electrons:             2
       Symmetry:                    a       
       Multiplicity:                 1
       Orbital rotations:          600
     -----------------------------------

     -----------------------------------
       E2 extrapolation:             F
       Conjugacy:                    T
       Micro CI relax:               T
       Canonical orbitals:           T
       Maximum iterations:          40
       Converge threshold:    1.00E-04
       Conjugacy resets:            20
       Initial levelshift:        0.10
     -----------------------------------

 Loading old vectors from job with title :

H2


   input molecular orbitals = ./H2.mos
  output molecular orbtials = ./H2.mos

       No. of determinants:           100


  Starting Orbital Energies
    -0.261014    -0.238912    -0.000021    -0.000005    -0.000005    -0.000000
    -0.000000    -0.000000    -0.000000    -0.000000     0.419990     0.611529
     0.830571     1.134693     1.134693     1.756587     1.835099     1.835099
     1.910375     2.049797     2.049797     2.053738     2.053738     2.070361
     2.090435     2.090435     2.090440     2.090440     2.899646     2.937960
     4.372578     4.372578     4.390643     4.444104     4.444104     4.475065
     5.943899     6.056091     6.056091     6.061074     6.069885     6.069885
     6.070683     6.070683     6.070683     6.070683     6.070693     6.070693
     6.070693     6.070693     8.127165     8.134057     8.135070     8.135070
     8.142223     8.142223     8.142671     8.142671     8.142672     8.142672
     9.648806     9.650130     9.698760     9.713173     9.713173     9.719083
     9.719083     9.756824    22.385179    22.484742

  Orbital Symmetry Irreps
a    a    a    a    a    a    a    a    a    a    a    a    a    a    a   
a    a    a    a    a    a    a    a    a    a    a    a    a    a    a   
a    a    a    a    a    a    a    a    a    a    a    a    a    a    a   
a    a    a    a    a    a    a    a    a    a    a    a    a    a    a   
a    a    a    a    a    a    a    a    a    a   

 Integral file          = ./H2.aoints.0
 Record size in doubles =  65536        No. of integs per rec  =  43688
 Max. records in memory =     99        Max. records in file   = 280220
 No. of bits per label  =      8        No. of bits per value  =     64


 #quartets = 1.496D+04 #integrals = 3.371D+05 #direct =  0.0% #cached =100.0%




          %%%%% MacroIteration   1 %%%%%


          Number of sigma calls:       14
                       o<<<<< (aa):             0.00
                       o<<<<< (bb):             0.00
                       o<<<<< (ab):             0.01
                       o<<<<< (total)           0.02
                       o<<<<< (aa) ff           0.00
                       o<<<<< (aa) gop          0.00
                       o<<<<< (aa) dot          0.00
                       o<<<<< (ab) str          0.00
                       o<<<<< (ab) gath         0.00
                       o<<<<< (ab) dotab        0.00
                       o<<<<< (ab) scat         0.00
                       o<<<<< (ab) sync         0.00
                       o<<<<< Density           0.00
                       o<<<<< Density one       0.00
                       o<<<<< Density two       0.00
                       o<<<<< Density ab        0.00
                       o<<<<< Spin adapt        0.00
                       o<<<<< Symm adapt        0.00

                       o<<<<< (ab) max sync:      0.00

           >>>| Valence CI:             -1.140861534906
           >>>| MCSCF energy:           -1.000016464483
           >>>| Gradient norm:          0.154709637D-03
     --- Warning:  480 Hessian diagonals < 0.05 ---

                              ----- Line search ------

        step       energy         lsg     num-lsg   num-lsh   lsrat    time
      ------- ---------------- --------- --------- --------- ------- --------
       0.0000      -1.00001646 -7.14D-09  0.00D+00  0.00D+00 0.0D+00      0.3

          Number of sigma calls:        8
                       o<<<<< (aa):             0.00
                       o<<<<< (bb):             0.00
                       o<<<<< (ab):             0.01
                       o<<<<< (total)           0.01
                       o<<<<< (aa) ff           0.00
                       o<<<<< (aa) gop          0.00
                       o<<<<< (aa) dot          0.00
                       o<<<<< (ab) str          0.00
                       o<<<<< (ab) gath         0.00
                       o<<<<< (ab) dotab        0.00
                       o<<<<< (ab) scat         0.00
                       o<<<<< (ab) sync         0.00
                       o<<<<< Density           0.00
                       o<<<<< Density one       0.00
                       o<<<<< Density two       0.00
                       o<<<<< Density ab        0.00
                       o<<<<< Spin adapt        0.00
                       o<<<<< Symm adapt        0.00

                       o<<<<< (ab) max sync:      0.00
       1.0000      -1.00001647 -2.12D-09 -2.12D-09  5.02D-09 3.0D-01      0.5

          Number of sigma calls:        8
                       o<<<<< (aa):             0.00
                       o<<<<< (bb):             0.00
                       o<<<<< (ab):             0.01
                       o<<<<< (total)           0.01
                       o<<<<< (aa) ff           0.00
                       o<<<<< (aa) gop          0.00
                       o<<<<< (aa) dot          0.00
                       o<<<<< (ab) str          0.00
                       o<<<<< (ab) gath         0.00
                       o<<<<< (ab) dotab        0.00
                       o<<<<< (ab) scat         0.00
                       o<<<<< (ab) sync         0.00
                       o<<<<< Density           0.00
                       o<<<<< Density one       0.00
                       o<<<<< Density two       0.00
                       o<<<<< Density ab        0.00
                       o<<<<< Spin adapt        0.00
                       o<<<<< Symm adapt        0.00

                       o<<<<< (ab) max sync:      0.00
       1.4221      -1.00001647  2.70D-12  2.68D-12  5.03D-09 3.8D-04      0.7
     --- Orbitals canonicalized ---



          %%%%% MacroIteration   2 %%%%%


          Number of sigma calls:       14
                       o<<<<< (aa):             0.00
                       o<<<<< (bb):             0.00
                       o<<<<< (ab):             0.01
                       o<<<<< (total)           0.01
                       o<<<<< (aa) ff           0.00
                       o<<<<< (aa) gop          0.00
                       o<<<<< (aa) dot          0.00
                       o<<<<< (ab) str          0.00
                       o<<<<< (ab) gath         0.00
                       o<<<<< (ab) dotab        0.00
                       o<<<<< (ab) scat         0.00
                       o<<<<< (ab) sync         0.00
                       o<<<<< Density           0.00
                       o<<<<< Density one       0.00
                       o<<<<< Density two       0.00
                       o<<<<< Density ab        0.00
                       o<<<<< Spin adapt        0.00
                       o<<<<< Symm adapt        0.00

                       o<<<<< (ab) max sync:      0.00

           >>>| Valence CI:             -1.140861539988
           >>>| MCSCF energy:           -1.000016469566
           >>>| Gradient norm:          0.264815754D-04




     ==============================
            MCSCF Converged
     ==============================



          Canonical Eigenvalues

              1      
    1   -0.2606
    2   -0.2393
    3   -0.0000
    4   -0.0000
    5   -0.0000
    6   -0.0000
    7   -0.0000
    8   -0.0000
    9   -0.0000
   10   -0.0000
   11    0.4203
   12    0.6100
   13    0.8293
   14    1.1343
   15    1.1343
   16    1.7555
   17    1.8355
   18    1.8355
   19    1.9123
   20    2.0498
   21    2.0498
   22    2.0536
   23    2.0536
   24    2.0686
   25    2.0904
   26    2.0904
   27    2.0904
   28    2.0904
   29    2.8997
   30    2.9367
   31    4.3722
   32    4.3722
   33    4.3929
   34    4.4445
   35    4.4445
   36    4.4713
   37    5.9439
   38    6.0561
   39    6.0561
   40    6.0611
   41    6.0699
   42    6.0699
   43    6.0707
   44    6.0707
   45    6.0707
   46    6.0707
   47    6.0707
   48    6.0707
   49    6.0707
   50    6.0707
   51    8.1271
   52    8.1340
   53    8.1351
   54    8.1351
   55    8.1422
   56    8.1422
   57    8.1427
   58    8.1427
   59    8.1427
   60    8.1427
   61    9.6485
   62    9.6495
   63    9.7003
   64    9.7130
   65    9.7130
   66    9.7193
   67    9.7193
   68    9.7554
   69   22.3899
   70   22.4780


          Converged CI vector

   Index           Coefficient          Config. Occupation
         1          0.72457214          1  1
        12         -0.68917937          2  2

          Number of sigma calls:        1
                       o<<<<< (aa):             0.00
                       o<<<<< (bb):             0.00
                       o<<<<< (ab):             0.00
                       o<<<<< (total)           0.00
                       o<<<<< (aa) ff           0.00
                       o<<<<< (aa) gop          0.00
                       o<<<<< (aa) dot          0.00
                       o<<<<< (ab) str          0.00
                       o<<<<< (ab) gath         0.00
                       o<<<<< (ab) dotab        0.00
                       o<<<<< (ab) scat         0.00
                       o<<<<< (ab) sync         0.00
                       o<<<<< Density           0.00
                       o<<<<< Density one       0.00
                       o<<<<< Density two       0.00
                       o<<<<< Density ab        0.00
                       o<<<<< Spin adapt        0.00
                       o<<<<< Symm adapt        0.00

                       o<<<<< (ab) max sync:      0.00



          Natural orbital occupation numbers

              1      
    1    1.0500
    2    0.9499
    3    0.0000
    4    0.0000
    5    0.0000
    6    0.0000
    7    0.0000
    8    0.0000
    9    0.0000
   10    0.0000


          Number of sigma calls:       14
                       o<<<<< (aa):             0.00
                       o<<<<< (bb):             0.00
                       o<<<<< (ab):             0.01
                       o<<<<< (total)           0.02
                       o<<<<< (aa) ff           0.00
                       o<<<<< (aa) gop          0.00
                       o<<<<< (aa) dot          0.00
                       o<<<<< (ab) str          0.00
                       o<<<<< (ab) gath         0.00
                       o<<<<< (ab) dotab        0.00
                       o<<<<< (ab) scat         0.00
                       o<<<<< (ab) sync         0.00
                       o<<<<< Density           0.00
                       o<<<<< Density one       0.00
                       o<<<<< Density two       0.00
                       o<<<<< Density ab        0.00
                       o<<<<< Spin adapt        0.00
                       o<<<<< Symm adapt        0.00

                       o<<<<< (ab) max sync:      0.00


       Final MCSCF results 
       ------------------- 

       Total MCSCF energy =     -1.000016469566
            Gradient norm =      2.6D-05

    CPU time for solution =      1.2s
   Wall time for solution =      1.3s



                        Analysis of MCSCF natural orbitals
                        ----------------------------------

 Vector    1  Occ=1.050010D+00  E=-2.605822D-01  Symmetry=a
              MO Center=  7.2D-15,  2.8D-12, -4.8D-15, r^2= 4.3D+00
   Bfn.  Coefficient  Atom+Function         Bfn.  Coefficient  Atom+Function  
  ----- ------------  ---------------      ----- ------------  ---------------
     3      0.344555  1 H  s                 38      0.344555  2 H  s          
     4      0.209942  1 H  s                 39      0.209942  2 H  s          
     2      0.178186  1 H  s                 37      0.178186  2 H  s          

 Vector    2  Occ=9.499364D-01  E=-2.393453D-01  Symmetry=a
              MO Center=  3.0D-14, -2.6D-12, -2.0D-14, r^2= 4.4D+00
   Bfn.  Coefficient  Atom+Function         Bfn.  Coefficient  Atom+Function  
  ----- ------------  ---------------      ----- ------------  ---------------
     3      0.355927  1 H  s                 38     -0.355927  2 H  s          
     4      0.209556  1 H  s                 39     -0.209556  2 H  s          
     2      0.181987  1 H  s                 37     -0.181987  2 H  s          

 Vector    3  Occ=3.593252D-05  E=-1.957967D-05  Symmetry=a
              MO Center=  2.6D-13,  3.7D-09, -1.6D-13, r^2= 4.5D+00
   Bfn.  Coefficient  Atom+Function         Bfn.  Coefficient  Atom+Function  
  ----- ------------  ---------------      ----- ------------  ---------------
     9      1.893415  1 H  py                44     -1.893415  2 H  py         
    12     -1.021079  1 H  py                47      1.021079  2 H  py         
    32     -0.800346  1 H  fyyy              67      0.800346  2 H  fyyy       
    27     -0.785797  1 H  fxxy              34     -0.785797  1 H  fyzz       
    62      0.785797  2 H  fxxy              69      0.785797  2 H  fyzz       

 Vector    4  Occ=8.873512D-06  E=-5.077038D-06  Symmetry=a
              MO Center= -1.3D-13, -2.3D-11,  7.4D-15, r^2= 4.5D+00
   Bfn.  Coefficient  Atom+Function         Bfn.  Coefficient  Atom+Function  
  ----- ------------  ---------------      ----- ------------  ---------------
     8      1.611465  1 H  px                43      1.611465  2 H  px         
    11     -0.964739  1 H  px                46     -0.964739  2 H  px         
    29     -0.705811  1 H  fxyy              64     -0.705811  2 H  fxyy       
    26     -0.679415  1 H  fxxx              31     -0.679415  1 H  fxzz       
    61     -0.679415  2 H  fxxx              66     -0.679415  2 H  fxzz       

 Vector    5  Occ=8.873512D-06  E=-5.077038D-06  Symmetry=a
              MO Center= -5.3D-15, -2.4D-11, -4.4D-14, r^2= 4.5D+00
   Bfn.  Coefficient  Atom+Function         Bfn.  Coefficient  Atom+Function  
  ----- ------------  ---------------      ----- ------------  ---------------
    10      1.611465  1 H  pz                45      1.611465  2 H  pz         
    13     -0.964739  1 H  pz                48     -0.964739  2 H  pz         
    33     -0.705811  1 H  fyyz              68     -0.705811  2 H  fyyz       
    28     -0.679415  1 H  fxxz              35     -0.679415  1 H  fzzz       
    63     -0.679415  2 H  fxxz              70     -0.679415  2 H  fzzz       

 Vector    6  Occ=7.065714D-08  E=-5.012621D-08  Symmetry=a
              MO Center= -1.4D-13,  1.3D-10,  2.0D-13, r^2= 4.1D+00
   Bfn.  Coefficient  Atom+Function         Bfn.  Coefficient  Atom+Function  
  ----- ------------  ---------------      ----- ------------  ---------------
     9      1.269532  1 H  py                44     -1.269532  2 H  py         
     2      0.593096  1 H  s                 37      0.593096  2 H  s          
     4     -0.524731  1 H  s                 27     -0.526252  1 H  fxxy       
    34     -0.526252  1 H  fyzz              39     -0.524731  2 H  s          
    62      0.526252  2 H  fxxy              69      0.526252  2 H  fyzz       

 Vector    7  Occ=3.935836D-08  E=-3.598084D-08  Symmetry=a
              MO Center= -3.1D-14,  7.9D-12, -5.2D-13, r^2= 3.3D+00
   Bfn.  Coefficient  Atom+Function         Bfn.  Coefficient  Atom+Function  
  ----- ------------  ---------------      ----- ------------  ---------------
    10      1.425066  1 H  pz                45     -1.425066  2 H  pz         
    28     -0.466008  1 H  fxxz              35     -0.466008  1 H  fzzz       
    63      0.466008  2 H  fxxz              70      0.466008  2 H  fzzz       
    24      0.383886  1 H  dyz               59      0.383886  2 H  dyz        
    33     -0.342681  1 H  fyyz              68      0.342681  2 H  fyyz       

 Vector    8  Occ=3.935836D-08  E=-3.580967D-08  Symmetry=a
              MO Center=  9.7D-13,  7.4D-12, -6.0D-14, r^2= 3.3D+00
   Bfn.  Coefficient  Atom+Function         Bfn.  Coefficient  Atom+Function  
  ----- ------------  ---------------      ----- ------------  ---------------
     8      1.425066  1 H  px                43     -1.425066  2 H  px         
    26     -0.466008  1 H  fxxx              31     -0.466008  1 H  fxzz       
    61      0.466008  2 H  fxxx              66      0.466008  2 H  fxzz       
    21      0.383886  1 H  dxy               56      0.383886  2 H  dxy        
    29     -0.342681  1 H  fxyy              64      0.342681  2 H  fxyy       

 Vector    9  Occ=3.898764D-08  E=-3.580967D-08  Symmetry=a
              MO Center= -1.4D-12,  1.5D-09,  8.4D-13, r^2= 3.4D+00
   Bfn.  Coefficient  Atom+Function         Bfn.  Coefficient  Atom+Function  
  ----- ------------  ---------------      ----- ------------  ---------------
     9      1.426582  1 H  py                44      1.426582  2 H  py         
     3     -0.919534  1 H  s                 38      0.919534  2 H  s          
     2      0.842255  1 H  s                 37     -0.842255  2 H  s          
    27     -0.521405  1 H  fxxy              34     -0.521405  1 H  fyzz       
    62     -0.521405  2 H  fxxy              69     -0.521405  2 H  fyzz       

 Vector   10  Occ=1.568042D-08  E=-1.828734D-08  Symmetry=a
              MO Center=  1.5D-14,  3.8D-09,  3.9D-15, r^2= 4.5D+00
   Bfn.  Coefficient  Atom+Function         Bfn.  Coefficient  Atom+Function  
  ----- ------------  ---------------      ----- ------------  ---------------
     9      3.001324  1 H  py                44     -3.001324  2 H  py         
    27     -1.323039  1 H  fxxy              34     -1.323039  1 H  fyzz       
    62      1.323039  2 H  fxxy              69      1.323039  2 H  fyzz       
    32     -1.024121  1 H  fyyy              67      1.024121  2 H  fyyy       
     6     -0.742065  1 H  py                41      0.742065  2 H  py         

 Vector   11  Occ=0.000000D+00  E= 4.203398D-01  Symmetry=a
              MO Center=  2.5D-12,  8.1D-10, -1.5D-12, r^2= 9.0D+00
   Bfn.  Coefficient  Atom+Function         Bfn.  Coefficient  Atom+Function  
  ----- ------------  ---------------      ----- ------------  ---------------
     3      2.593365  1 H  s                 38     -2.593365  2 H  s          
     4     -1.540275  1 H  s                 39      1.540275  2 H  s          
     9     -1.333742  1 H  py                44     -1.333742  2 H  py         
     2     -0.629891  1 H  s                 37      0.629891  2 H  s          
    12      0.613845  1 H  py                47      0.613845  2 H  py         

 Vector   12  Occ=0.000000D+00  E= 6.099749D-01  Symmetry=a
              MO Center= -7.9D-13,  5.0D-09,  4.9D-13, r^2= 6.5D+00
   Bfn.  Coefficient  Atom+Function         Bfn.  Coefficient  Atom+Function  
  ----- ------------  ---------------      ----- ------------  ---------------
     3      2.045496  1 H  s                 38     -2.045496  2 H  s          
     4     -1.161845  1 H  s                 39      1.161845  2 H  s          
     9      1.109747  1 H  py                44      1.109747  2 H  py         
    12     -0.834284  1 H  py                47     -0.834284  2 H  py         
     2     -0.556330  1 H  s                 37      0.556330  2 H  s          

 Vector   13  Occ=0.000000D+00  E= 8.293085D-01  Symmetry=a
              MO Center=  6.2D-14, -1.9D-08, -3.7D-14, r^2= 7.4D+00
   Bfn.  Coefficient  Atom+Function         Bfn.  Coefficient  Atom+Function  
  ----- ------------  ---------------      ----- ------------  ---------------
     3      3.838936  1 H  s                 38      3.838936  2 H  s          
     4     -1.574616  1 H  s                 39     -1.574616  2 H  s          
     2     -1.240445  1 H  s                 37     -1.240445  2 H  s          
    23     -0.637796  1 H  dyy               58     -0.637795  2 H  dyy        
    20     -0.585366  1 H  dxx               25     -0.585366  1 H  dzz        

 Vector   14  Occ=0.000000D+00  E= 1.134331D+00  Symmetry=a
              MO Center=  8.6D-14, -2.6D-11, -8.9D-15, r^2= 5.9D+00
   Bfn.  Coefficient  Atom+Function         Bfn.  Coefficient  Atom+Function  
  ----- ------------  ---------------      ----- ------------  ---------------
     8      4.937919  1 H  px                43     -4.937919  2 H  px         
    26     -1.919481  1 H  fxxx              31     -1.919481  1 H  fxzz       
    61      1.919481  2 H  fxxx              66      1.919481  2 H  fxzz       
    29     -1.902085  1 H  fxyy              64      1.902085  2 H  fxyy       
    11     -1.480342  1 H  px                46      1.480342  2 H  px         

 Vector   15  Occ=0.000000D+00  E= 1.134331D+00  Symmetry=a
              MO Center= -1.5D-15, -2.4D-11, -9.9D-15, r^2= 5.9D+00
   Bfn.  Coefficient  Atom+Function         Bfn.  Coefficient  Atom+Function  
  ----- ------------  ---------------      ----- ------------  ---------------
    10      4.937919  1 H  pz                45     -4.937919  2 H  pz         
    28     -1.919481  1 H  fxxz              35     -1.919481  1 H  fzzz       
    63      1.919481  2 H  fxxz              70      1.919481  2 H  fzzz       
    33     -1.902085  1 H  fyyz              68      1.902085  2 H  fyyz       
    13     -1.480342  1 H  pz                48      1.480342  2 H  pz         

 Vector   16  Occ=0.000000D+00  E= 1.755492D+00  Symmetry=a
              MO Center= -7.2D-13,  6.7D-09,  4.3D-13, r^2= 5.7D+00
   Bfn.  Coefficient  Atom+Function         Bfn.  Coefficient  Atom+Function  
  ----- ------------  ---------------      ----- ------------  ---------------
     9      4.787473  1 H  py                44      4.787473  2 H  py         
     3      2.144312  1 H  s                 38     -2.144312  2 H  s          
    27     -1.845027  1 H  fxxy              32     -1.836985  1 H  fyyy       
    34     -1.845027  1 H  fyzz              62     -1.845027  2 H  fxxy       
    67     -1.836985  2 H  fyyy              69     -1.845027  2 H  fyzz       

 Vector   17  Occ=0.000000D+00  E= 1.835490D+00  Symmetry=a
              MO Center= -6.2D-14,  5.4D-11,  5.0D-14, r^2= 4.8D+00
   Bfn.  Coefficient  Atom+Function         Bfn.  Coefficient  Atom+Function  
  ----- ------------  ---------------      ----- ------------  ---------------
     8      4.852421  1 H  px                43      4.852421  2 H  px         
    10     -3.897103  1 H  pz                45     -3.897103  2 H  pz         
    26     -1.893952  1 H  fxxx              29     -1.893148  1 H  fxyy       
    31     -1.893952  1 H  fxzz              61     -1.893952  2 H  fxxx       
    64     -1.893148  2 H  fxyy              66     -1.893952  2 H  fxzz       

 Vector   18  Occ=0.000000D+00  E= 1.835490D+00  Symmetry=a
              MO Center= -1.3D-14,  5.4D-11, -1.1D-14, r^2= 4.8D+00
   Bfn.  Coefficient  Atom+Function         Bfn.  Coefficient  Atom+Function  
  ----- ------------  ---------------      ----- ------------  ---------------
    10      4.852421  1 H  pz                45      4.852421  2 H  pz         
     8      3.897103  1 H  px                43      3.897103  2 H  px         
    28     -1.893952  1 H  fxxz              33     -1.893148  1 H  fyyz       
    35     -1.893952  1 H  fzzz              63     -1.893952  2 H  fxxz       
    68     -1.893148  2 H  fyyz              70     -1.893952  2 H  fzzz       

 Vector   19  Occ=0.000000D+00  E= 1.912297D+00  Symmetry=a
              MO Center= -6.5D-15, -3.6D-09,  8.9D-15, r^2= 5.6D+00
   Bfn.  Coefficient  Atom+Function         Bfn.  Coefficient  Atom+Function  
  ----- ------------  ---------------      ----- ------------  ---------------
     9      4.831503  1 H  py                44     -4.831503  2 H  py         
    32     -1.900060  1 H  fyyy              67      1.900060  2 H  fyyy       
    27     -1.889205  1 H  fxxy              34     -1.889205  1 H  fyzz       
    62      1.889205  2 H  fxxy              69      1.889205  2 H  fyzz       
     6     -1.281094  1 H  py                41      1.281094  2 H  py         

 Vector   20  Occ=0.000000D+00  E= 2.049849D+00  Symmetry=a
              MO Center= -9.5D-15, -2.5D-09,  6.6D-15, r^2= 4.9D+00
   Bfn.  Coefficient  Atom+Function         Bfn.  Coefficient  Atom+Function  
  ----- ------------  ---------------      ----- ------------  ---------------
    24      1.213876  1 H  dyz               59     -1.213876  2 H  dyz        
    10     -0.504789  1 H  pz                45     -0.504789  2 H  pz         
    21      0.452320  1 H  dxy               56     -0.452320  2 H  dxy        
    33      0.198097  1 H  fyyz              68      0.198097  2 H  fyyz       
    28      0.196653  1 H  fxxz              35      0.196653  1 H  fzzz       


 Wrote Lagrangian and 1- and 2-particle density matrices to ./H2.mcpdm


     Multipole analysis of the density
     ---------------------------------

     L   x y z        total        nuclear
     -   - - -        -----        -------
     0   0 0 0     -0.000000      2.000000

     1   1 0 0     -0.000000      0.000000
     1   0 1 0     -0.000000      0.000000
     1   0 0 1      0.000000      0.000000

     2   2 0 0     -2.000185      0.000000
     2   1 1 0      0.000000      0.000000
     2   1 0 1     -0.000000      0.000000
     2   0 2 0     -1.979980     25.205000
     2   0 1 1     -0.000000      0.000000
     2   0 0 2     -2.000185      0.000000


  Mulliken analysis of the total density
  --------------------------------------

    Atom       Charge   Shell Charges
 -----------   ------   -------------------------------------------------------
    1 H    1     1.00   0.05  0.22  0.48  0.25  0.00 -0.00  0.00  0.00  0.00  0.00
    2 H    1     1.00   0.05  0.22  0.48  0.25  0.00 -0.00  0.00  0.00  0.00  0.00

    Mulliken analysis of the active space density
    ---------------------------------------------

    Atom       Charge   Shell Charges
 -----------   ------   -------------------------------------------------------
    1 H    1     1.00   0.05  0.22  0.48  0.25  0.00 -0.00  0.00  0.00  0.00  0.00
    2 H    1     1.00   0.05  0.22  0.48  0.25  0.00 -0.00  0.00  0.00  0.00  0.00

 Parallel integral file used       8 records with       0 large values


 Task  times  cpu:        1.2s     wall:        1.3s


                                NWChem Input Module
                                -------------------


                                 NWChem SCF Module
                                 -----------------


                                        H2



  ao basis        = "ao basis"
  functions       =    70
  atoms           =     2
  closed shells   =     1
  open shells     =     0
  charge          =   0.00
  wavefunction    = RHF 
  input vectors   = ./H2.mos
  output vectors  = ./H2-7.10.mos
  use symmetry    = F
  symmetry adapt  = F


 Summary of "ao basis" -> "ao basis" (cartesian)
 ------------------------------------------------------------------------------
       Tag                 Description            Shells   Functions and Types
 ---------------- ------------------------------  ------  ---------------------
 H                          cc-pVQZ                 10       35   4s3p2d1f



 Forming initial guess at       1.4s


 Loading old vectors from job with title :

H2


 Starting SCF solution at       1.4s



 ----------------------------------------------
         Quadratically convergent ROHF

 Convergence threshold     :          1.000E-04
 Maximum no. of iterations :           30
 Final Fock-matrix accuracy:          1.000E-07
 ----------------------------------------------


 Integral file          = ./H2.aoints.0
 Record size in doubles =  65536        No. of integs per rec  =  43688
 Max. records in memory =     99        Max. records in file   = 280249
 No. of bits per label  =      8        No. of bits per value  =     64


 #quartets = 1.334D+04 #integrals = 2.978D+05 #direct =  0.0% #cached =100.0%



       Final RHF  results 
       ------------------ 

         Total SCF energy =     -0.769256550296
      One-electron energy =     -1.289037708332
      Two-electron energy =      0.378936087614
 Nuclear repulsion energy =      0.140845070423

        Time for solution =      0.0s


             Final eigenvalues
             -----------------

              1      
    1   -0.2606
    2   -0.2393
    3   -0.0000
    4   -0.0000
    5   -0.0000
    6   -0.0000
    7   -0.0000
    8   -0.0000
    9   -0.0000
   10   -0.0000
   11    0.4203

                       ROHF Final Molecular Orbital Analysis
                       -------------------------------------

 Vector    1  Occ=2.000000D+00  E=-2.605822D-01
              MO Center=  7.2D-15,  2.8D-12, -4.8D-15, r^2= 4.3D+00
   Bfn.  Coefficient  Atom+Function         Bfn.  Coefficient  Atom+Function  
  ----- ------------  ---------------      ----- ------------  ---------------
     3      0.344555  1 H  s                 38      0.344555  2 H  s          
     4      0.209942  1 H  s                 39      0.209942  2 H  s          
     2      0.178186  1 H  s                 37      0.178186  2 H  s          

 Vector    2  Occ=0.000000D+00  E=-2.393453D-01
              MO Center=  3.0D-14, -2.6D-12, -2.0D-14, r^2= 4.4D+00
   Bfn.  Coefficient  Atom+Function         Bfn.  Coefficient  Atom+Function  
  ----- ------------  ---------------      ----- ------------  ---------------
     3      0.355927  1 H  s                 38     -0.355927  2 H  s          
     4      0.209556  1 H  s                 39     -0.209556  2 H  s          
     2      0.181987  1 H  s                 37     -0.181987  2 H  s          

 Vector    3  Occ=0.000000D+00  E=-1.957967D-05
              MO Center=  2.6D-13,  3.7D-09, -1.6D-13, r^2= 4.5D+00
   Bfn.  Coefficient  Atom+Function         Bfn.  Coefficient  Atom+Function  
  ----- ------------  ---------------      ----- ------------  ---------------
     9      1.893415  1 H  py                44     -1.893415  2 H  py         
    12     -1.021079  1 H  py                47      1.021079  2 H  py         
    32     -0.800346  1 H  fyyy              67      0.800346  2 H  fyyy       
    27     -0.785797  1 H  fxxy              34     -0.785797  1 H  fyzz       
    62      0.785797  2 H  fxxy              69      0.785797  2 H  fyzz       

 Vector    4  Occ=0.000000D+00  E=-5.077038D-06
              MO Center= -1.3D-13, -2.3D-11,  7.4D-15, r^2= 4.5D+00
   Bfn.  Coefficient  Atom+Function         Bfn.  Coefficient  Atom+Function  
  ----- ------------  ---------------      ----- ------------  ---------------
     8      1.611465  1 H  px                43      1.611465  2 H  px         
    11     -0.964739  1 H  px                46     -0.964739  2 H  px         
    29     -0.705811  1 H  fxyy              64     -0.705811  2 H  fxyy       
    26     -0.679415  1 H  fxxx              31     -0.679415  1 H  fxzz       
    61     -0.679415  2 H  fxxx              66     -0.679415  2 H  fxzz       

 Vector    5  Occ=0.000000D+00  E=-5.077038D-06
              MO Center= -5.3D-15, -2.4D-11, -4.4D-14, r^2= 4.5D+00
   Bfn.  Coefficient  Atom+Function         Bfn.  Coefficient  Atom+Function  
  ----- ------------  ---------------      ----- ------------  ---------------
    10      1.611465  1 H  pz                45      1.611465  2 H  pz         
    13     -0.964739  1 H  pz                48     -0.964739  2 H  pz         
    33     -0.705811  1 H  fyyz              68     -0.705811  2 H  fyyz       
    28     -0.679415  1 H  fxxz              35     -0.679415  1 H  fzzz       
    63     -0.679415  2 H  fxxz              70     -0.679415  2 H  fzzz       

 Vector    6  Occ=0.000000D+00  E=-5.012621D-08
              MO Center= -1.4D-13,  1.3D-10,  2.0D-13, r^2= 4.1D+00
   Bfn.  Coefficient  Atom+Function         Bfn.  Coefficient  Atom+Function  
  ----- ------------  ---------------      ----- ------------  ---------------
     9      1.269532  1 H  py                44     -1.269532  2 H  py         
     2      0.593096  1 H  s                 37      0.593096  2 H  s          
     4     -0.524731  1 H  s                 27     -0.526252  1 H  fxxy       
    34     -0.526252  1 H  fyzz              39     -0.524731  2 H  s          
    62      0.526252  2 H  fxxy              69      0.526252  2 H  fyzz       

 Vector    7  Occ=0.000000D+00  E=-3.598084D-08
              MO Center= -3.1D-14,  7.9D-12, -5.2D-13, r^2= 3.3D+00
   Bfn.  Coefficient  Atom+Function         Bfn.  Coefficient  Atom+Function  
  ----- ------------  ---------------      ----- ------------  ---------------
    10      1.425066  1 H  pz                45     -1.425066  2 H  pz         
    28     -0.466008  1 H  fxxz              35     -0.466008  1 H  fzzz       
    63      0.466008  2 H  fxxz              70      0.466008  2 H  fzzz       
    24      0.383886  1 H  dyz               59      0.383886  2 H  dyz        
    33     -0.342681  1 H  fyyz              68      0.342681  2 H  fyyz       

 Vector    8  Occ=0.000000D+00  E=-3.580967D-08
              MO Center=  9.7D-13,  7.4D-12, -6.0D-14, r^2= 3.3D+00
   Bfn.  Coefficient  Atom+Function         Bfn.  Coefficient  Atom+Function  
  ----- ------------  ---------------      ----- ------------  ---------------
     8      1.425066  1 H  px                43     -1.425066  2 H  px         
    26     -0.466008  1 H  fxxx              31     -0.466008  1 H  fxzz       
    61      0.466008  2 H  fxxx              66      0.466008  2 H  fxzz       
    21      0.383886  1 H  dxy               56      0.383886  2 H  dxy        
    29     -0.342681  1 H  fxyy              64      0.342681  2 H  fxyy       

 Vector    9  Occ=0.000000D+00  E=-3.580967D-08
              MO Center= -1.4D-12,  1.5D-09,  8.4D-13, r^2= 3.4D+00
   Bfn.  Coefficient  Atom+Function         Bfn.  Coefficient  Atom+Function  
  ----- ------------  ---------------      ----- ------------  ---------------
     9      1.426582  1 H  py                44      1.426582  2 H  py         
     3     -0.919534  1 H  s                 38      0.919534  2 H  s          
     2      0.842255  1 H  s                 37     -0.842255  2 H  s          
    27     -0.521405  1 H  fxxy              34     -0.521405  1 H  fyzz       
    62     -0.521405  2 H  fxxy              69     -0.521405  2 H  fyzz       

 Vector   10  Occ=0.000000D+00  E=-1.828734D-08
              MO Center=  1.5D-14,  3.8D-09,  3.9D-15, r^2= 4.5D+00
   Bfn.  Coefficient  Atom+Function         Bfn.  Coefficient  Atom+Function  
  ----- ------------  ---------------      ----- ------------  ---------------
     9      3.001324  1 H  py                44     -3.001324  2 H  py         
    27     -1.323039  1 H  fxxy              34     -1.323039  1 H  fyzz       
    62      1.323039  2 H  fxxy              69      1.323039  2 H  fyzz       
    32     -1.024121  1 H  fyyy              67      1.024121  2 H  fyyy       
     6     -0.742065  1 H  py                41      0.742065  2 H  py         

 Vector   11  Occ=0.000000D+00  E= 4.203398D-01
              MO Center=  2.5D-12,  8.1D-10, -1.5D-12, r^2= 9.0D+00
   Bfn.  Coefficient  Atom+Function         Bfn.  Coefficient  Atom+Function  
  ----- ------------  ---------------      ----- ------------  ---------------
     3      2.593365  1 H  s                 38     -2.593365  2 H  s          
     4     -1.540275  1 H  s                 39      1.540275  2 H  s          
     9     -1.333742  1 H  py                44     -1.333742  2 H  py         
     2     -0.629891  1 H  s                 37      0.629891  2 H  s          
    12      0.613845  1 H  py                47      0.613845  2 H  py         

 Vector   12  Occ=0.000000D+00  E= 6.099749D-01
              MO Center= -7.9D-13,  5.0D-09,  4.9D-13, r^2= 6.5D+00
   Bfn.  Coefficient  Atom+Function         Bfn.  Coefficient  Atom+Function  
  ----- ------------  ---------------      ----- ------------  ---------------
     3      2.045496  1 H  s                 38     -2.045496  2 H  s          
     4     -1.161845  1 H  s                 39      1.161845  2 H  s          
     9      1.109747  1 H  py                44      1.109747  2 H  py         
    12     -0.834284  1 H  py                47     -0.834284  2 H  py         
     2     -0.556330  1 H  s                 37      0.556330  2 H  s          


 center of mass
 --------------
 x =   0.00000000 y =   0.00000000 z =   0.00000000

 moments of inertia (a.u.)
 ------------------
          25.402229125000           0.000000000000           0.000000000000
           0.000000000000           0.000000000000           0.000000000000
           0.000000000000           0.000000000000          25.402229125000

  Mulliken analysis of the total density
  --------------------------------------

    Atom       Charge   Shell Charges
 -----------   ------   -------------------------------------------------------
    1 H    1     1.00   0.04  0.21  0.48  0.26 -0.00  0.00 -0.00  0.00  0.00 -0.00
    2 H    1     1.00   0.04  0.21  0.48  0.26 -0.00  0.00 -0.00  0.00  0.00 -0.00

       Multipole analysis of the density wrt the origin
       ------------------------------------------------

     L   x y z        total         open         nuclear
     -   - - -        -----         ----         -------
     0   0 0 0     -0.000000      0.000000      2.000000

     1   1 0 0     -0.000000      0.000000      0.000000
     1   0 1 0     -0.000000      0.000000      0.000000
     1   0 0 1      0.000000      0.000000      0.000000

     2   2 0 0     -2.044908      0.000000      0.000000
     2   1 1 0     -0.000000      0.000000      0.000000
     2   1 0 1      0.000000      0.000000      0.000000
     2   0 2 0     -1.644942      0.000000     25.205000
     2   0 1 1      0.000000      0.000000      0.000000
     2   0 0 2     -2.044908      0.000000      0.000000


 Parallel integral file used       7 records with       0 large values

 ------------------------------------
     Number of active orbitals     10
     Number of active alpha electrons      1
     Number of active beta electrons       1
 ------------------------------------
                   NWChem Extensible Many-Electron Theory Module
                   ---------------------------------------------

              ======================================================
                   This portion of the program was automatically
                  generated by a Tensor Contraction Engine (TCE).
                  The development of this portion of the program
                 and TCE was supported by US Department of Energy,
                Office of Science, Office of Basic Energy Science.
                      TCE is a product of Battelle and PNNL.
              Please cite: S.Hirata, J.Phys.Chem.A 107, 9887 (2003).
              ======================================================

                                        H2


            General Information
            -------------------
      Number of processors :     1
         Wavefunction type : Restricted Hartree-Fock
          No. of electrons :     2
           Alpha electrons :     1
            Beta electrons :     1
           No. of orbitals :   140
            Alpha orbitals :    70
             Beta orbitals :    70
        Alpha frozen cores :     0
         Beta frozen cores :     0
     Alpha frozen virtuals :    60
      Beta frozen virtuals :    60
         Spin multiplicity : singlet 
    Number of AO functions :    70
       Number of AO shells :    20
        Use of symmetry is : off
      Symmetry adaption is : off
         Schwarz screening : 0.10D-09

          Correlation Information
          -----------------------
          Calculation type : Coupled-cluster singles & doubles                           
   Perturbative correction : none                                                        
            Max iterations :      300
        Residual threshold : 0.10D-06
     T(0) DIIS level shift : 0.40D+00
     L(0) DIIS level shift : 0.00D+00
     T(1) DIIS level shift : 0.00D+00
     L(1) DIIS level shift : 0.00D+00
     T(R) DIIS level shift : 0.00D+00
     T(I) DIIS level shift : 0.00D+00
   CC-T/L Amplitude update :  5-th order DIIS
                I/O scheme : Global Array Library
        L-threshold :  0.10D-06
        EOM-threshold :  0.10D-06
 no EOMCCSD initial starts read in
 TCE RESTART OPTIONS
 READ_INT:   F
 WRITE_INT:  F
 READ_TA:    F
 WRITE_TA:   F
 READ_XA:    F
 WRITE_XA:   F
 READ_IN3:   F
 WRITE_IN3:  F
 SLICE:      F
 D4D5:       F
 quantumc:   T
 qrotation:  F
 pwtce:      F
 qducc:      F
 nacto:                         0
 nrotv:                         0
 nrot:                          0

            Memory Information
            ------------------
          Available GA space size is    1610607836 doubles
          Available MA space size is    1610610644 doubles

 Maximum block size supplied by input
 Maximum block size         1 doubles

 tile_dim =      1

 Block   Spin    Irrep     Size     Offset   Alpha
 -------------------------------------------------
   1    alpha     a      1 doubles       0       1
   2    beta      a      1 doubles       1       1
   3    alpha     a      1 doubles       2       3
   4    alpha     a      1 doubles       3       4
   5    alpha     a      1 doubles       4       5
   6    alpha     a      1 doubles       5       6
   7    alpha     a      1 doubles       6       7
   8    alpha     a      1 doubles       7       8
   9    alpha     a      1 doubles       8       9
  10    alpha     a      1 doubles       9      10
  11    alpha     a      1 doubles      10      11
  12    beta      a      1 doubles      11       3
  13    beta      a      1 doubles      12       4
  14    beta      a      1 doubles      13       5
  15    beta      a      1 doubles      14       6
  16    beta      a      1 doubles      15       7
  17    beta      a      1 doubles      16       8
  18    beta      a      1 doubles      17       9
  19    beta      a      1 doubles      18      10
  20    beta      a      1 doubles      19      11

 Global array virtual files algorithm will be used

 Parallel file system coherency ......... OK

 Integral file          = ./H2.aoints.0
 Record size in doubles =  65536        No. of integs per rec  =  43688
 Max. records in memory =     99        Max. records in file   = 280249
 No. of bits per label  =      8        No. of bits per value  =     64


 #quartets = 1.510D+04 #integrals = 3.462D+05 #direct =  0.0% #cached =100.0%


 Fock matrix recomputed
 1-e file size   =              100
 1-e file name   = ./H2.f1
 Cpu & wall time / sec            0.0            0.0
 4-electron integrals stored in orbital form

 v2    file size   =             1540
 4-index algorithm nr.  13 is used
 imaxsize =       30
 imaxsize ichop =        0
 begin_one_electron_integrals
    1    1        -0.6445188542
    3    1         0.0225800058
    6    1        -0.0004114152
   10    1        -0.0005105614
    2    2        -0.6369432197
    9    2        -0.0014306277
    1    3         0.0225800058
    3    3        -0.0500145115
    6    3        -0.0911615517
    9    3         0.0000000004
   10    3        -0.1193187167
    4    4         0.0035017080
    5    5         0.0035017080
    1    6        -0.0004114152
    3    6        -0.0911615517
    6    6         0.2504564919
    9    6        -0.0000000028
   10    6         0.3858216693
    7    7         0.6774028520
    8    8         0.6774028520
    2    9        -0.0014306277
    3    9         0.0000000004
    6    9        -0.0000000028
    9    9         0.7057413207
   10    9        -0.0000000026
    1   10        -0.0005105614
    3   10        -0.1193187167
    6   10         0.3858216693
    9   10        -0.0000000026
   10   10         1.3679894838
 end_one_electron_integrals
 begin_two_electron_integrals
    1    1    1    1        0.3789360934
    2    1    2    1        0.2421058778
    3    1    1    1       -0.0048309284
    3    1    3    1        0.0403110282
    3    1    2    2       -0.0029937984
    4    1    4    1        0.0401596346
    5    1    5    1        0.0401596346
    6    1    1    1        0.0846386952
    6    1    3    1       -0.0045381663
    6    1    6    1        0.0624194378
    6    1    2    2        0.0871833830
    6    1    3    3        0.0346228143
    6    1    4    4        0.0322249403
    6    1    5    5        0.0322249403
    7    1    7    1        0.0591053621
    7    1    4    2       -0.0004420359
    7    1    5    2       -0.0442155371
    8    1    8    1        0.0591053621
    8    1    4    2       -0.0442155371
    8    1    5    2        0.0004420359
    9    1    1    1        0.0000000002
    9    1    2    1        0.0753892257
    9    1    9    1        0.0673531282
    9    1    2    2        0.0000000002
    9    1    3    2       -0.0056840786
    9    1    6    2        0.0647412769
    9    1    7    4       -0.0003855197
    9    1    8    4       -0.0385623858
    9    1    7    5       -0.0385623858
    9    1    8    5        0.0003855197
    9    1    7    7        0.0000000002
    9    1    8    8        0.0000000002
   10    1    1    1       -0.0377027198
   10    1    2    1        0.0000000003
   10    1    3    1       -0.0141530239
   10    1    6    1       -0.0200060857
   10    1    9    1        0.0000000002
   10    1   10    1        0.0361955942
   10    1    2    2       -0.0393608894
   10    1    3    2       -0.0000000001
   10    1    6    2        0.0000000003
   10    1    9    2       -0.0206009886
   10    1    3    3        0.0040012342
   10    1    6    3       -0.0059550326
   10    1    4    4       -0.0144250898
   10    1    8    4       -0.0000000002
   10    1    5    5       -0.0144250898
   10    1    7    5       -0.0000000002
   10    1    6    6       -0.0241643166
   10    1    9    6        0.0000000004
   10    1    7    7       -0.0306775589
   10    1    8    8       -0.0306775589
   10    1    9    9       -0.0337545956
    2    2    1    1        0.3828995372
    2    2    2    2        0.3871133224
    3    2    2    1        0.0186976995
    3    2    3    2        0.0339958577
    4    2    4    2        0.0376834339
    5    2    5    2        0.0376834339
    6    2    2    1        0.0886446943
    6    2    3    2       -0.0041942264
    6    2    6    2        0.0648436007
    7    2    4    1       -0.0004655926
    7    2    5    1       -0.0465718427
    7    2    7    2        0.0622012680
    7    2    4    3        0.0000796707
    7    2    5    3        0.0079692275
    7    2    6    4        0.0000855514
    7    2    6    5        0.0085574530
    8    2    4    1       -0.0465718427
    8    2    5    1        0.0004655926
    8    2    8    2        0.0622012680
    8    2    4    3        0.0079692275
    8    2    5    3       -0.0000796707
    8    2    6    4        0.0085574530
    8    2    6    5       -0.0000855514
    9    2    1    1        0.0783856647
    9    2    2    1        0.0000000002
    9    2    3    1       -0.0068675996
    9    2    6    1        0.0649622150
    9    2    9    1        0.0000000001
    9    2    2    2        0.0807920451
    9    2    9    2        0.0699576939
    9    2    3    3        0.0275194583
    9    2    6    3       -0.0120349488
    9    2    4    4        0.0253140054
    9    2    8    4       -0.0000000001
    9    2    5    5        0.0253140054
    9    2    7    5       -0.0000000001
    9    2    6    6        0.0798807842
    9    2    7    7        0.0772659416
    9    2    8    8        0.0772659416
   10    2    1    1        0.0000000004
   10    2    2    1       -0.0403495698
   10    2    3    1       -0.0000000002
   10    2    6    1        0.0000000003
   10    2    9    1       -0.0209539471
   10    2    2    2        0.0000000004
   10    2    3    2       -0.0138836239
   10    2    6    2       -0.0212220052
   10    2    9    2        0.0000000002
   10    2   10    2        0.0371500327
   10    2    3    3        0.0000000002
   10    2    9    3       -0.0019834160
   10    2    4    4        0.0000000002
   10    2    7    4        0.0001949806
   10    2    8    4        0.0195033324
   10    2    5    5        0.0000000002
   10    2    7    5        0.0195033324
   10    2    8    5       -0.0001949806
   10    2    6    6        0.0000000005
   10    2    9    6       -0.0301294630
   10    2    7    7        0.0000000005
   10    2    8    8        0.0000000005
   10    2    9    9        0.0000000004
    3    3    1    1        0.3040607411
    3    3    2    1       -0.0000000004
    3    3    3    1       -0.0220984564
    3    3    2    2        0.3043091427
    3    3    3    3        0.3068516911
    4    3    4    1       -0.0061841502
    4    3    4    3        0.0144334558
    5    3    5    1       -0.0061841502
    5    3    5    3        0.0144334558
    6    3    1    1       -0.0099749992
    6    3    2    1       -0.0000000001
    6    3    3    1       -0.0056006979
    6    3    6    1       -0.0121205068
    6    3    2    2       -0.0111475237
    6    3    3    3        0.0007197803
    6    3    6    3        0.0154682788
    6    3    4    4       -0.0014437601
    6    3    5    5       -0.0014437601
    7    3    7    1       -0.0103297033
    7    3    4    2        0.0000757860
    7    3    5    2        0.0075806512
    7    3    7    3        0.0115388871
    8    3    8    1       -0.0103297033
    8    3    4    2        0.0075806512
    8    3    5    2       -0.0000757860
    8    3    8    3        0.0115388871
    9    3    1    1        0.0000000002
    9    3    2    1       -0.0207627034
    9    3    3    1       -0.0000000001
    9    3    6    1        0.0000000002
    9    3    9    1       -0.0130016175
    9    3    2    2        0.0000000002
    9    3    3    2       -0.0069202978
    9    3    6    2       -0.0124276292
    9    3    9    2        0.0000000002
    9    3    3    3        0.0000000002
    9    3    9    3        0.0133462459
    9    3    4    4        0.0000000001
    9    3    7    4        0.0001042455
    9    3    8    4        0.0104273653
    9    3    5    5        0.0000000001
    9    3    7    5        0.0104273653
    9    3    8    5       -0.0001042455
    9    3    6    6        0.0000000002
    9    3    7    7        0.0000000003
    9    3    8    8        0.0000000003
   10    3    1    1       -0.0466650908
   10    3    2    1       -0.0000000006
   10    3    3    1        0.0326567431
   10    3    6    1       -0.0281549449
   10    3   10    1       -0.0040153691
   10    3    2    2       -0.0464910995
   10    3    3    2       -0.0000000001
   10    3    6    2       -0.0000000002
   10    3    9    2       -0.0272921777
   10    3   10    2       -0.0000000003
   10    3    3    3       -0.0381095199
   10    3    6    3        0.0031124226
   10    3    9    3       -0.0000000001
   10    3   10    3        0.0495354895
   10    3    4    4       -0.0338914723
   10    3    8    4        0.0000000004
   10    3    5    5       -0.0338914723
   10    3    7    5        0.0000000004
   10    3    6    6       -0.0551504575
   10    3    9    6       -0.0000000003
   10    3    7    7       -0.0645072344
   10    3    8    8       -0.0645072344
   10    3    9    9       -0.0655442607
    4    4    1    1        0.3054766873
    4    4    3    1       -0.0166496951
    4    4    2    2        0.3068566751
    4    4    3    3        0.2753061004
    4    4    4    4        0.3012736905
    5    4    5    4        0.0139149623
    6    4    4    1       -0.0153147053
    6    4    4    3        0.0018194994
    6    4    6    4        0.0170293617
    7    4    2    1       -0.0016496901
    7    4    3    2        0.0000054603
    7    4    6    2       -0.0004979832
    7    4    7    4        0.0111249372
    8    4    2    1       -0.1650135973
    8    4    3    2        0.0005461822
    8    4    6    2       -0.0498117796
    8    4    3    3        0.0000000003
    8    4    6    3        0.0000000001
    8    4    7    4        0.0012940397
    8    4    8    4        0.1405509450
    8    4    7    5        0.1183269444
    9    4    7    1        0.0001184359
    9    4    8    1        0.0118467876
    9    4    4    2       -0.0170386529
    9    4    7    3       -0.0000222562
    9    4    8    3       -0.0022262218
    9    4    9    4        0.0183740127
    9    4    7    6       -0.0000860999
    9    4    8    6       -0.0086123178
   10    4    4    1       -0.0043649906
   10    4    7    2        0.0000676678
   10    4    8    2        0.0067686092
   10    4    4    3       -0.0009278504
   10    4    6    4        0.0017584339
   10    4   10    4        0.0065967285
   10    4    9    7       -0.0000046460
   10    4    9    8       -0.0004647271
    5    5    1    1        0.3054766873
    5    5    3    1       -0.0166496951
    5    5    2    2        0.3068566751
    5    5    3    3        0.2753061004
    5    5    4    4        0.2734437659
    5    5    5    5        0.3012736905
    6    5    5    1       -0.0153147053
    6    5    5    3        0.0018194994
    6    5    6    5        0.0170293617
    7    5    2    1       -0.1650135973
    7    5    3    2        0.0005461822
    7    5    6    2       -0.0498117796
    7    5    3    3        0.0000000003
    7    5    6    3        0.0000000001
    7    5    7    4        0.0012940397
    7    5    7    5        0.1405509450
    8    5    2    1        0.0016496901
    8    5    3    2       -0.0000054603
    8    5    6    2        0.0004979832
    8    5    7    4        0.0110990634
    8    5    8    4       -0.0012940397
    8    5    7    5       -0.0012940397
    8    5    8    5        0.0111249372
    9    5    7    1        0.0118467876
    9    5    8    1       -0.0001184359
    9    5    5    2       -0.0170386529
    9    5    7    3       -0.0022262218
    9    5    8    3        0.0000222562
    9    5    9    5        0.0183740127
    9    5    7    6       -0.0086123178
    9    5    8    6        0.0000860999
   10    5    5    1       -0.0043649906
   10    5    7    2        0.0067686092
   10    5    8    2       -0.0000676678
   10    5    5    3       -0.0009278504
   10    5    6    5        0.0017584339
   10    5   10    5        0.0065967285
   10    5    9    7       -0.0004647271
   10    5    9    8        0.0000046460
    6    6    1    1        0.3471643444
    6    6    3    1       -0.0268493442
    6    6    6    1        0.0799489550
    6    6    2    2        0.3494387156
    6    6    3    3        0.2916716848
    6    6    6    3       -0.0065883850
    6    6    4    4        0.2881308923
    6    6    5    5        0.2881308923
    6    6    6    6        0.3437124729
    7    6    7    1        0.0160529527
    7    6    4    2       -0.0000625877
    7    6    5    2       -0.0062604632
    7    6    7    3       -0.0042195788
    7    6    7    6        0.0148199374
    8    6    8    1        0.0160529527
    8    6    4    2       -0.0062604632
    8    6    5    2        0.0000625877
    8    6    8    3       -0.0042195788
    8    6    8    6        0.0148199374
    9    6    1    1       -0.0000000002
    9    6    2    1        0.2089076345
    9    6    3    1        0.0000000002
    9    6    9    1        0.0863241525
    9    6    2    2       -0.0000000002
    9    6    3    2       -0.0033430010
    9    6    6    2        0.0928631135
    9    6    3    3       -0.0000000005
    9    6    9    3       -0.0187062328
    9    6    4    4       -0.0000000002
    9    6    7    4       -0.0014244328
    9    6    8    4       -0.1424817797
    9    6    5    5       -0.0000000002
    9    6    7    5       -0.1424817797
    9    6    8    5        0.0014244328
    9    6    6    6       -0.0000000003
    9    6    9    6        0.2075868586
    9    6    7    7       -0.0000000002
    9    6    8    8       -0.0000000002
   10    6    1    1       -0.0044516422
   10    6    2    1        0.0000000011
   10    6    3    1       -0.0282467226
   10    6    6    1       -0.0075136640
   10    6    9    1        0.0000000004
   10    6   10    1        0.0278902410
   10    6    2    2       -0.0060504513
   10    6    6    2        0.0000000006
   10    6    9    2       -0.0087858781
   10    6    3    3        0.0222208877
   10    6    6    3       -0.0031308617
   10    6   10    3       -0.0253532367
   10    6    4    4        0.0132908999
   10    6    8    4       -0.0000000008
   10    6    5    5        0.0132908999
   10    6    7    5       -0.0000000008
   10    6    6    6        0.0102759765
   10    6    9    6        0.0000000010
   10    6   10    6        0.0376632055
   10    6    7    7        0.0141760872
   10    6    8    8        0.0141760872
   10    6    9    9        0.0070473827
    7    7    1    1        0.3902469590
    7    7    3    1       -0.0268428679
    7    7    6    1        0.0847173495
    7    7    2    2        0.3936970661
    7    7    3    3        0.3161173254
    7    7    6    3       -0.0113338279
    7    7    4    4        0.3153066699
    7    7    5    4        0.0002683455
    7    7    5    5        0.3421457942
    7    7    6    6        0.3606101266
    7    7    7    7        0.4517442390
    8    7    4    4        0.0002683455
    8    7    5    4        0.0134195622
    8    7    5    5       -0.0002683455
    8    7    8    7        0.0220381451
    9    7    4    1        0.0000024450
    9    7    5    1        0.0002445622
    9    7    7    2        0.0095582809
    9    7    4    3        0.0000044242
    9    7    5    3        0.0004425389
    9    7    6    4       -0.0001186323
    9    7    6    5       -0.0118664330
    9    7    9    7        0.0172810020
   10    7    7    1       -0.0125695009
   10    7    4    2        0.0000902271
   10    7    5    2        0.0090251527
   10    7    7    2        0.0000000001
   10    7    7    3       -0.0069020489
   10    7    9    4       -0.0000303049
   10    7    9    5       -0.0030313120
   10    7    7    6       -0.0011035811
   10    7   10    7        0.0157403273
    8    8    1    1        0.3902469590
    8    8    3    1       -0.0268428679
    8    8    6    1        0.0847173495
    8    8    2    2        0.3936970661
    8    8    3    3        0.3161173254
    8    8    6    3       -0.0113338279
    8    8    4    4        0.3421457942
    8    8    5    4       -0.0002683455
    8    8    5    5        0.3153066699
    8    8    6    6        0.3606101266
    8    8    7    7        0.4076679489
    8    8    8    8        0.4517442390
    9    8    4    1        0.0002445622
    9    8    5    1       -0.0000024450
    9    8    8    2        0.0095582809
    9    8    4    3        0.0004425389
    9    8    5    3       -0.0000044242
    9    8    6    4       -0.0118664330
    9    8    6    5        0.0001186323
    9    8    9    8        0.0172810020
   10    8    8    1       -0.0125695009
   10    8    4    2        0.0090251527
   10    8    5    2       -0.0000902271
   10    8    8    2        0.0000000001
   10    8    8    3       -0.0069020489
   10    8    9    4       -0.0030313120
   10    8    9    5        0.0000303049
   10    8    8    6       -0.0011035811
   10    8   10    8        0.0157403273
    9    9    1    1        0.3902849000
    9    9    2    1       -0.0000000003
    9    9    3    1       -0.0294639309
    9    9    6    1        0.1058424496
    9    9    9    1        0.0000000001
    9    9    2    2        0.3937677507
    9    9    3    2        0.0000000002
    9    9    9    2        0.1067771965
    9    9    3    3        0.3115982355
    9    9    6    3       -0.0119543750
    9    9    9    3        0.0000000004
    9    9    4    4        0.3118529525
    9    9    8    4        0.0000000003
    9    9    5    5        0.3118529525
    9    9    7    5        0.0000000003
    9    9    6    6        0.3851567008
    9    9    9    6       -0.0000000005
    9    9    7    7        0.4054218133
    9    9    8    8        0.4054218133
    9    9    9    9        0.4415547878
   10    9    1    1        0.0000000003
   10    9    2    1       -0.0225664697
   10    9    6    1        0.0000000002
   10    9    9    1       -0.0138389307
   10    9   10    1       -0.0000000001
   10    9    2    2        0.0000000003
   10    9    3    2       -0.0192905955
   10    9    6    2       -0.0129158779
   10    9    9    2        0.0000000001
   10    9   10    2        0.0264998508
   10    9    9    3       -0.0019802808
   10    9    4    4        0.0000000001
   10    9    7    4        0.0000189862
   10    9    8    4        0.0018991285
   10    9    5    5        0.0000000001
   10    9    7    5        0.0018991285
   10    9    8    5       -0.0000189862
   10    9    6    6        0.0000000003
   10    9    9    6       -0.0124426948
   10    9   10    6       -0.0000000001
   10    9    7    7        0.0000000003
   10    9    8    8        0.0000000003
   10    9    9    9        0.0000000002
   10    9   10    9        0.0311443177
   10   10    1    1        0.3633787053
   10   10    2    1        0.0000000001
   10   10    3    1       -0.0252459078
   10   10    6    1        0.0830028929
   10   10    9    1        0.0000000001
   10   10   10    1       -0.0048396691
   10   10    2    2        0.3659879614
   10   10    3    2       -0.0000000003
   10   10    6    2        0.0000000001
   10   10    9    2        0.0766936244
   10   10   10    2        0.0000000007
   10   10    3    3        0.3249965687
   10   10    6    3       -0.0178522026
   10   10    9    3        0.0000000003
   10   10   10    3       -0.0680660885
   10   10    4    4        0.2975462955
   10   10    8    4       -0.0000000003
   10   10    5    5        0.2975462955
   10   10    7    5       -0.0000000003
   10   10    6    6        0.3471134827
   10   10   10    6        0.0251834425
   10   10    7    7        0.3786377075
   10   10    8    8        0.3786377075
   10   10    9    9        0.3847151710
   10   10   10    9        0.0000000005
   10   10   10   10        0.3988569574
 end_two_electron_integrals
 enrep_tce =   0.14084507042253519     
  EHF(A)             =        -0.76925654
  EHF(total)         =        -0.76925655
  Shift (HFtot-HFA)  =        -0.00000001
 Cpu & wall time / sec            1.6            1.7
 T1-number-of-tasks                    9

 t1 file size   =                9
 t1 file name   = ./H2.t1
 t1 file handle =       -998
 T2-number-of-boxes                  126

 t2 file size   =              126
 t2 file name   = ./H2.t2
 t2 file handle =       -996
CCSD iterations
 ---------------------------------------------------------
 Iter          Residuum       Correlation     Cpu    Wall 
 ---------------------------------------------------------
NEW TASK SCHEDULING
CCSD_T1_NTS --- OK
CCSD_T2_NTS --- OK
    1   5.1396917538962  -0.7393285095243     0.6     0.6
    2   6.7642924615431  -0.1545358666493     0.5     0.5
    3   8.9411179850475  -0.6149141709194     0.4     0.6
    4  26.5425455797274   0.9143445361567     0.4     0.6
    5  58.4601207176967  -0.1531951092494     0.4     0.6
 MICROCYCLE DIIS UPDATE:                    5                    5
    6   3.5319396226799  -0.5481106251495     0.3     0.6
    7   8.0520585589742   0.1168082555482     0.4     0.6
    8  23.3366799085405  -0.5366053795886     0.4     0.6
    9 191.5109577444051   2.5003979413544     0.3     0.6
   10 174.0445874279115   0.9363364185429     0.3     0.6
 MICROCYCLE DIIS UPDATE:                   10                    5
   11   1.3911749137287  -0.2597035298398     0.6     0.6
   12   3.4083102180065  -0.3541957398421     0.6     0.6
   13   8.1588321042801  -0.0332374143744     0.4     0.6
   14  22.7696345576331  -0.4623997441476     0.8     0.8
   15 136.5167752066677   1.9237606321160     0.6     0.9
 MICROCYCLE DIIS UPDATE:                   15                    5
   16   0.3792791655474  -0.2624630395173     0.7     0.8
   17   0.8774295896565  -0.2696040483183     0.7     0.8
   18   2.0796464604951  -0.1925393335332     0.6     0.8
   19   5.3610411198281  -0.3069264102091     0.3     0.6
   20  15.6848064354610   0.2143168596166     0.6     0.6
 MICROCYCLE DIIS UPDATE:                   20                    5
   21   0.0878400172389  -0.2396995941546     0.4     0.5
   22   0.2012877722251  -0.2390441724902     0.5     0.5
   23   0.4819932447827  -0.2253253167734     0.1     0.5
   24   1.1815947351057  -0.2507277925632     0.6     0.6
   25   2.8448963838953  -0.1740623324486     0.5     0.5
 MICROCYCLE DIIS UPDATE:                   25                    5
   26   0.0101756636966  -0.2320594588433     0.6     0.7
   27   0.0215917450784  -0.2316905661896     0.6     0.8
   28   0.0502862596606  -0.2304142184470     0.6     0.8
   29   0.1206251925717  -0.2328479841889     0.6     0.8
   30   0.2907587779816  -0.2257453542082     0.3     0.8
 MICROCYCLE DIIS UPDATE:                   30                    5
   31   0.0002631797832  -0.2307994498961     0.7     0.8
   32   0.0003211948731  -0.2307886655491     0.8     0.8
   33   0.0006577886900  -0.2307591953563     0.3     0.6
   34   0.0014467642174  -0.2308049314522     0.5     0.5
   35   0.0032331798279  -0.2306585014493     0.3     0.5
 MICROCYCLE DIIS UPDATE:                   35                    5
   36   0.0000218853002  -0.2307674911443     0.4     0.5
   37   0.0000300657077  -0.2307632465499     0.4     0.6
   38   0.0000673199371  -0.2307626760059     0.5     0.5
   39   0.0001647467532  -0.2307592191958     0.4     0.5
   40   0.0004134393990  -0.2307640021964     0.5     0.5
 MICROCYCLE DIIS UPDATE:                   40                    5
   41   0.0000006924607  -0.2307599946797     0.3     0.6
   42   0.0000009802288  -0.2307600767923     0.4     0.6
   43   0.0000025789597  -0.2307598430986     0.5     0.5
   44   0.0000067891653  -0.2307602095350     0.2     0.6
   45   0.0000178876931  -0.2307593271723     0.8     0.8
 MICROCYCLE DIIS UPDATE:                   45                    5
   46   0.0000000646514  -0.2307599466788     0.5     0.7
 -----------------------------------------------------------------
 Iterations converged
 CCSD correlation energy / hartree =        -0.230759946678794
 CCSD total energy / hartree       =        -1.000016496974818

 Singles contributions

 Doubles contributions
     2a   (alpha)     2a   (beta ) ---     1a   (alpha)     1a   (beta )       -0.9511541000
 Ground state specification:
 exp(T)|Ref>~(1+T)|Ref>
 ------- a(p)+/a(q) strings ----------

 singles norm

 doubles norm

 Reference string
  0.72458172989857617      :(1a)+ (1b)+ |0>

 Singles strings

 Doubles strings
 -0.68918888317876015      :(2a)+ (2b)+ (1b)  (1a)  (1a)+ (1b)+ |0>
 -------------------------------------

 Parallel integral file used       8 records with       0 large values


 Task  times  cpu:       24.6s     wall:       31.6s


                                NWChem Input Module
                                -------------------


 Summary of allocated global arrays
-----------------------------------
  No active global arrays


MA_summarize_allocated_blocks: starting scan ...
MA_summarize_allocated_blocks: scan completed: 0 heap blocks, 0 stack blocks
MA usage statistics:

	allocation statistics:
					      heap	     stack
					      ----	     -----
	current number of blocks	         0	         0
	maximum number of blocks	        18	        42
	current total bytes		         0	         0
	maximum total bytes		  51983048	  61995224
	maximum total K-bytes		     51984	     61996
	maximum total M-bytes		        52	        62


                                     CITATION
                                     --------
                Please cite the following reference when publishing
                           results obtained with NWChem:

          E. Apra, E. J. Bylaska, W. A. de Jong, N. Govind, K. Kowalski,
       T. P. Straatsma, M. Valiev, H. J. J. van Dam, Y. Alexeev, J. Anchell,
       V. Anisimov, F. W. Aquino, R. Atta-Fynn, J. Autschbach, N. P. Bauman,
     J. C. Becca, D. E. Bernholdt, K. Bhaskaran-Nair, S. Bogatko, P. Borowski,
         J. Boschen, J. Brabec, A. Bruner, E. Cauet, Y. Chen, G. N. Chuev,
      C. J. Cramer, J. Daily, M. J. O. Deegan, T. H. Dunning Jr., M. Dupuis,
   K. G. Dyall, G. I. Fann, S. A. Fischer, A. Fonari, H. Fruchtl, L. Gagliardi,
      J. Garza, N. Gawande, S. Ghosh, K. Glaesemann, A. W. Gotz, J. Hammond,
       V. Helms, E. D. Hermes, K. Hirao, S. Hirata, M. Jacquelin, L. Jensen,
   B. G. Johnson, H. Jonsson, R. A. Kendall, M. Klemm, R. Kobayashi, V. Konkov,
      S. Krishnamoorthy, M. Krishnan, Z. Lin, R. D. Lins, R. J. Littlefield,
      A. J. Logsdail, K. Lopata, W. Ma, A. V. Marenich, J. Martin del Campo,
   D. Mejia-Rodriguez, J. E. Moore, J. M. Mullin, T. Nakajima, D. R. Nascimento,
    J. A. Nichols, P. J. Nichols, J. Nieplocha, A. Otero-de-la-Roza, B. Palmer,
    A. Panyala, T. Pirojsirikul, B. Peng, R. Peverati, J. Pittner, L. Pollack,
   R. M. Richard, P. Sadayappan, G. C. Schatz, W. A. Shelton, D. W. Silverstein,
   D. M. A. Smith, T. A. Soares, D. Song, M. Swart, H. L. Taylor, G. S. Thomas,
            V. Tipparaju, D. G. Truhlar, K. Tsemekhman, T. Van Voorhis,
      A. Vazquez-Mayagoitia, P. Verma, O. Villa, A. Vishnu, K. D. Vogiatzis,
        D. Wang, J. H. Weare, M. J. Williamson, T. L. Windus, K. Wolinski,
        A. T. Wong, Q. Wu, C. Yang, Q. Yu, M. Zacharias, Z. Zhang, Y. Zhao,
                                and R. J. Harrison
                        "NWChem: Past, present, and future
                         J. Chem. Phys. 152, 184102 (2020)
                               doi:10.1063/5.0004997

                                      AUTHORS
                                      -------
  E. Apra, E. J. Bylaska, N. Govind, K. Kowalski, M. Valiev, D. Mejia-Rodriguez,
       A. Kunitsa, N. P. Bauman, A. Panyala, W. A. de Jong, T. P. Straatsma,
        H. J. J. van Dam, D. Wang, T. L. Windus, J. Hammond, J. Autschbach,
    K. Bhaskaran-Nair, J. Brabec, K. Lopata, S. A. Fischer, S. Krishnamoorthy,
     M. Jacquelin, W. Ma, M. Klemm, O. Villa, Y. Chen, V. Anisimov, F. Aquino,
    S. Hirata, M. T. Hackler, Eric Hermes, L. Jensen, J. E. Moore, J. C. Becca,
      V. Konjkov, T. Risthaus, M. Malagoli, A. Marenich, A. Otero-de-la-Roza,
        J. Mullin, P. Nichols, R. Peverati, J. Pittner, Y. Zhao, P.-D. Fan,
        A. Fonari, M. J. Williamson, R. J. Harrison, J. R. Rehr, M. Dupuis,
     D. Silverstein, D. M. A. Smith, J. Nieplocha, V. Tipparaju, M. Krishnan,
     B. E. Van Kuiken, A. Vazquez-Mayagoitia, M. Swart, Q. Wu, T. Van Voorhis,
     A. A. Auer, M. Nooijen, L. D. Crosby, E. Brown, G. Cisneros, G. I. Fann,
   H. Fruchtl, J. Garza, K. Hirao, R. A. Kendall, J. A. Nichols, K. Tsemekhman,
    K. Wolinski, J. Anchell, D. E. Bernholdt, P. Borowski, T. Clark, D. Clerc,
   H. Dachsel, M. J. O. Deegan, K. Dyall, D. Elwood, E. Glendening, M. Gutowski,
   A. C. Hess, J. Jaffe, B. G. Johnson, J. Ju, R. Kobayashi, R. Kutteh, Z. Lin,
   R. Littlefield, X. Long, B. Meng, T. Nakajima, S. Niu, L. Pollack, M. Rosing,
   K. Glaesemann, G. Sandrone, M. Stave, H. Taylor, G. Thomas, J. H. van Lenthe,
                               A. T. Wong, Z. Zhang.

 Total times  cpu:       25.8s     wall:       32.9s
