 argument  1 = input.nw
  NWChem w/ OpenMP: maximum threads =    1



============================== echo of input deck ==============================
 echo
 start HF
 title "HF"

 memory total 24 gb

 geometry units bohr
 symmetry c1
        F  0.00000000  0.00000000  0.00000000
        H  0.00000000  1.923075  0.00000000
 end

 basis spherical
   * library cc-pVTZ
 end

 mcscf
   active  8
   actelec 10
   multiplicity 1
   maxiter 40
   vectors input HF.mos
   vectors output HF.mos
 end

 task mcscf

 scf
   vectors input HF.mos
   vectors output HF-trash.mos
   noscf
 end

 tce
   2eorb
   2emet 13
   ccsd
   maxiter 500
 end

 set tce:print_integrals T
 set tce:qorb 8
 set tce:qela 5
 set tce:qelb 5

# set tce:qducc T
# set tce:nactv 3
# set tce:nonhf T
# set tce:ducc_model 3

 set tce:printtol 0.02

 task tce
================================================================================


                                         
                                         


             Northwest Computational Chemistry Package (NWChem) 7.0.1
             --------------------------------------------------------


                    Environmental Molecular Sciences Laboratory
                       Pacific Northwest National Laboratory
                                Richland, WA 99352

                              Copyright (c) 1994-2020
                       Pacific Northwest National Laboratory
                            Battelle Memorial Institute

             NWChem is an open-source computational chemistry package
                        distributed under the terms of the
                      Educational Community License (ECL) 2.0
             A copy of the license is included with this distribution
                              in the LICENSE.TXT file

                                  ACKNOWLEDGMENT
                                  --------------

            This software and its documentation were developed at the
            EMSL at Pacific Northwest National Laboratory, a multiprogram
            national laboratory, operated for the U.S. Department of Energy
            by Battelle under Contract Number DE-AC05-76RL01830. Support
            for this work was provided by the Department of Energy Office
            of Biological and Environmental Research, Office of Basic
            Energy Sciences, and the Office of Advanced Scientific Computing.


           Job information
           ---------------

    hostname        = WE46210
    program         = /home/baum612/code/nwchem/bin/LINUX64/nwchem
    date            = Thu Apr 25 13:13:30 2024

    compiled        = Mon_Apr_01_12:20:50_2024
    source          = /home/baum612/code/nwchem
    nwchem branch   = 7.0.0
    nwchem revision = nwchem_on_git-4191-g39d87d64de
    ga revision     = 5.8.1
    use scalapack   = F
    input           = input.nw
    prefix          = HF.
    data base       = ./HF.db
    status          = startup
    nproc           =        1
    time left       =     -1s



           Memory information
           ------------------

    heap     =  805306366 doubles =   6144.0 Mbytes
    stack    =  805306363 doubles =   6144.0 Mbytes
    global   = 1610612736 doubles =  12288.0 Mbytes (distinct from heap & stack)
    total    = 3221225465 doubles =  24576.0 Mbytes
    verify   = yes
    hardfail = no 


           Directory information
           ---------------------

  0 permanent = .
  0 scratch   = .




                                NWChem Input Module
                                -------------------


                                        HF
                                        --
 Turning off AUTOSYM since
 SYMMETRY directive was detected!


          ------
          auto-z
          ------
  no constraints, skipping    0.0000000000000000     
  no constraints, skipping    0.0000000000000000     


                             Geometry "geometry" -> ""
                             -------------------------

 Output coordinates in a.u. (scale by  1.000000000 to convert to a.u.)

  No.       Tag          Charge          X              Y              Z
 ---- ---------------- ---------- -------------- -------------- --------------
    1 F                    9.0000     0.00000000    -0.19230750     0.00000000
    2 H                    1.0000     0.00000000     1.73076750     0.00000000

      Atomic Mass 
      ----------- 

      F                 18.998400
      H                  1.007825


 Effective nuclear repulsion energy (a.u.)       4.6800046800

            Nuclear Dipole moment (a.u.) 
            ----------------------------
        X                 Y               Z
 ---------------- ---------------- ----------------
     0.0000000000     0.0000000000     0.0000000000



                                Z-matrix (autoz)
                                -------- 

 Units are Angstrom for bonds and degrees for angles

      Type          Name      I     J     K     L     M      Value
      ----------- --------  ----- ----- ----- ----- ----- ----------
    1 Stretch                  1     2                       1.01765


            XYZ format geometry
            -------------------
     2
 geometry
 F                     0.00000000    -0.10176475     0.00000000
 H                     0.00000000     0.91588278     0.00000000



 Summary of "ao basis" -> "" (spherical)
 ------------------------------------------------------------------------------
       Tag                 Description            Shells   Functions and Types
 ---------------- ------------------------------  ------  ---------------------
 *                          cc-pVTZ                   on all atoms 


                      Basis "ao basis" -> "ao basis" (spherical)
                      -----
  F (Fluorine)
  ------------
            Exponent  Coefficients 
       -------------- ---------------------------------------------------------
  1 S  1.95000000E+04  0.000507
  1 S  2.92300000E+03  0.003923
  1 S  6.64500000E+02  0.020200
  1 S  1.87500000E+02  0.079010
  1 S  6.06200000E+01  0.230439
  1 S  2.14200000E+01  0.432872
  1 S  7.95000000E+00  0.349964
  1 S  8.81500000E-01 -0.007892

  2 S  1.95000000E+04 -0.000117
  2 S  2.92300000E+03 -0.000912
  2 S  6.64500000E+02 -0.004717
  2 S  1.87500000E+02 -0.019086
  2 S  6.06200000E+01 -0.059655
  2 S  2.14200000E+01 -0.140010
  2 S  7.95000000E+00 -0.176782
  2 S  8.81500000E-01  0.605043

  3 S  2.25700000E+00  1.000000

  4 S  3.04100000E-01  1.000000

  5 P  4.38800000E+01  0.016665
  5 P  9.92600000E+00  0.104472
  5 P  2.93000000E+00  0.317260

  6 P  9.13200000E-01  1.000000

  7 P  2.67200000E-01  1.000000

  8 D  3.10700000E+00  1.000000

  9 D  8.55000000E-01  1.000000

 10 F  1.91700000E+00  1.000000

  H (Hydrogen)
  ------------
            Exponent  Coefficients 
       -------------- ---------------------------------------------------------
  1 S  3.38700000E+01  0.006068
  1 S  5.09500000E+00  0.045308
  1 S  1.15900000E+00  0.202822

  2 S  3.25800000E-01  1.000000

  3 S  1.02700000E-01  1.000000

  4 P  1.40700000E+00  1.000000

  5 P  3.88000000E-01  1.000000

  6 D  1.05700000E+00  1.000000



 Summary of "ao basis" -> "ao basis" (spherical)
 ------------------------------------------------------------------------------
       Tag                 Description            Shells   Functions and Types
 ---------------- ------------------------------  ------  ---------------------
 F                          cc-pVTZ                 10       30   4s3p2d1f
 H                          cc-pVTZ                  6       14   3s2p1d



                            NWChem Direct MCSCF Module
                            --------------------------


                                        HF


     -----------------------------------
       Basis functions:             44
       Inactive shells:              0
       Active shells:                8
       Active electrons:            10
       Symmetry:                    a       
       Multiplicity:                 1
       Orbital rotations:          288
     -----------------------------------

     -----------------------------------
       E2 extrapolation:             F
       Conjugacy:                    T
       Micro CI relax:               T
       Canonical orbitals:           T
       Maximum iterations:          40
       Converge threshold:    1.00E-04
       Conjugacy resets:            20
       Initial levelshift:        0.10
     -----------------------------------

 Loading old vectors from job with title :

HF


   input molecular orbitals = ./HF.mos
  output molecular orbtials = ./HF.mos

       No. of determinants:          3136


  Starting Orbital Energies
   -26.290382    -1.576283    -0.749194    -0.641271    -0.641271    -0.031038
    -0.008067    -0.003682     0.376142     0.820782     0.820782     1.002935
     1.002935     1.150236     1.617385     2.237261     2.237261     2.462042
     2.462042     2.622307     3.493163     3.493163     3.853530     3.853530
     4.072792     4.170995     4.170995     4.676808     5.275063     5.275063
     6.099059     7.412541     7.412541     7.512089     7.512089     8.011356
     8.126544     8.126544     8.897310     8.897310     9.138843     9.275772
     9.275772    11.385429

  Orbital Symmetry Irreps
a    a    a    a    a    a    a    a    a    a    a    a    a    a    a   
a    a    a    a    a    a    a    a    a    a    a    a    a    a    a   
a    a    a    a    a    a    a    a    a    a    a    a    a    a   

 Integral file          = ./HF.aoints.0
 Record size in doubles =  65536        No. of integs per rec  =  43688
 Max. records in memory =     18        Max. records in file   = 250983
 No. of bits per label  =      8        No. of bits per value  =     64


 #quartets = 9.316D+03 #integrals = 1.251D+05 #direct =  0.0% #cached =100.0%




          %%%%% MacroIteration   1 %%%%%


          Number of sigma calls:       20
                       o<<<<< (aa):             0.00
                       o<<<<< (bb):             0.00
                       o<<<<< (ab):             0.05
                       o<<<<< (total)           0.06
                       o<<<<< (aa) ff           0.00
                       o<<<<< (aa) gop          0.00
                       o<<<<< (aa) dot          0.00
                       o<<<<< (ab) str          0.00
                       o<<<<< (ab) gath         0.00
                       o<<<<< (ab) dotab        0.00
                       o<<<<< (ab) scat         0.00
                       o<<<<< (ab) sync         0.00
                       o<<<<< Density           0.01
                       o<<<<< Density one       0.00
                       o<<<<< Density two       0.00
                       o<<<<< Density ab        0.01
                       o<<<<< Spin adapt        0.11
                       o<<<<< Symm adapt        0.00

                       o<<<<< (ab) max sync:      0.00

           >>>| Valence CI:           -104.777686977261
           >>>| MCSCF energy:         -100.097682297257
           >>>| Gradient norm:          0.929104404D-02
     --- Warning:   48 Hessian diagonals < 0.05 ---

                              ----- Line search ------

        step       energy         lsg     num-lsg   num-lsh   lsrat    time
      ------- ---------------- --------- --------- --------- ------- --------
       0.0000    -100.09768230 -7.12D-06  0.00D+00  0.00D+00 0.0D+00      0.5

          Number of sigma calls:       18
                       o<<<<< (aa):             0.00
                       o<<<<< (bb):             0.00
                       o<<<<< (ab):             0.03
                       o<<<<< (total)           0.03
                       o<<<<< (aa) ff           0.00
                       o<<<<< (aa) gop          0.00
                       o<<<<< (aa) dot          0.00
                       o<<<<< (ab) str          0.00
                       o<<<<< (ab) gath         0.00
                       o<<<<< (ab) dotab        0.00
                       o<<<<< (ab) scat         0.00
                       o<<<<< (ab) sync         0.00
                       o<<<<< Density           0.01
                       o<<<<< Density one       0.00
                       o<<<<< Density two       0.00
                       o<<<<< Density ab        0.01
                       o<<<<< Spin adapt        0.08
                       o<<<<< Symm adapt        0.00

                       o<<<<< (ab) max sync:      0.00
       1.0000    -100.09768618 -6.49D-07 -6.50D-07  6.47D-06 9.1D-02      0.6
     --- Orbitals canonicalized ---



          %%%%% MacroIteration   2 %%%%%


          Number of sigma calls:       15
                       o<<<<< (aa):             0.00
                       o<<<<< (bb):             0.00
                       o<<<<< (ab):             0.04
                       o<<<<< (total)           0.05
                       o<<<<< (aa) ff           0.00
                       o<<<<< (aa) gop          0.00
                       o<<<<< (aa) dot          0.00
                       o<<<<< (ab) str          0.00
                       o<<<<< (ab) gath         0.00
                       o<<<<< (ab) dotab        0.00
                       o<<<<< (ab) scat         0.00
                       o<<<<< (ab) sync         0.00
                       o<<<<< Density           0.01
                       o<<<<< Density one       0.00
                       o<<<<< Density two       0.00
                       o<<<<< Density ab        0.01
                       o<<<<< Spin adapt        0.09
                       o<<<<< Symm adapt        0.00

                       o<<<<< (ab) max sync:      0.00

           >>>| Valence CI:           -104.777690861157
           >>>| MCSCF energy:         -100.097686181152
           >>>| Gradient norm:          0.177018229D-02
     --- Warning:   48 Hessian diagonals < 0.05 ---
     --- Conjugacy reset ---

                              ----- Line search ------

        step       energy         lsg     num-lsg   num-lsh   lsrat    time
      ------- ---------------- --------- --------- --------- ------- --------
       0.0000    -100.09768618 -2.55D-07  0.00D+00  0.00D+00 0.0D+00      0.9

          Number of sigma calls:       13
                       o<<<<< (aa):             0.00
                       o<<<<< (bb):             0.00
                       o<<<<< (ab):             0.04
                       o<<<<< (total)           0.05
                       o<<<<< (aa) ff           0.00
                       o<<<<< (aa) gop          0.00
                       o<<<<< (aa) dot          0.00
                       o<<<<< (ab) str          0.00
                       o<<<<< (ab) gath         0.00
                       o<<<<< (ab) dotab        0.00
                       o<<<<< (ab) scat         0.00
                       o<<<<< (ab) sync         0.00
                       o<<<<< Density           0.00
                       o<<<<< Density one       0.00
                       o<<<<< Density two       0.00
                       o<<<<< Density ab        0.00
                       o<<<<< Spin adapt        0.10
                       o<<<<< Symm adapt        0.00

                       o<<<<< (ab) max sync:      0.00
       1.0000    -100.09768636 -9.64D-08 -9.64D-08  1.58D-07 3.8D-01      1.0

          Number of sigma calls:       12
                       o<<<<< (aa):             0.00
                       o<<<<< (bb):             0.00
                       o<<<<< (ab):             0.03
                       o<<<<< (total)           0.04
                       o<<<<< (aa) ff           0.00
                       o<<<<< (aa) gop          0.00
                       o<<<<< (aa) dot          0.00
                       o<<<<< (ab) str          0.00
                       o<<<<< (ab) gath         0.00
                       o<<<<< (ab) dotab        0.00
                       o<<<<< (ab) scat         0.00
                       o<<<<< (ab) sync         0.00
                       o<<<<< Density           0.00
                       o<<<<< Density one       0.00
                       o<<<<< Density two       0.00
                       o<<<<< Density ab        0.00
                       o<<<<< Spin adapt        0.08
                       o<<<<< Symm adapt        0.00

                       o<<<<< (ab) max sync:      0.00
       1.6086    -100.09768639  1.10D-10  1.03D-10  1.59D-07 4.3D-04      1.2



          %%%%% MacroIteration   3 %%%%%


          Number of sigma calls:        1
                       o<<<<< (aa):             0.00
                       o<<<<< (bb):             0.00
                       o<<<<< (ab):             0.00
                       o<<<<< (total)           0.00
                       o<<<<< (aa) ff           0.00
                       o<<<<< (aa) gop          0.00
                       o<<<<< (aa) dot          0.00
                       o<<<<< (ab) str          0.00
                       o<<<<< (ab) gath         0.00
                       o<<<<< (ab) dotab        0.00
                       o<<<<< (ab) scat         0.00
                       o<<<<< (ab) sync         0.00
                       o<<<<< Density           0.01
                       o<<<<< Density one       0.00
                       o<<<<< Density two       0.00
                       o<<<<< Density ab        0.01
                       o<<<<< Spin adapt        0.00
                       o<<<<< Symm adapt        0.00

                       o<<<<< (ab) max sync:      0.00

           >>>| Valence CI:           -104.777691066093
           >>>| MCSCF energy:         -100.097686386088
           >>>| Gradient norm:          0.232550655D-03
     --- Warning:   48 Hessian diagonals < 0.05 ---

                              ----- Line search ------

        step       energy         lsg     num-lsg   num-lsh   lsrat    time
      ------- ---------------- --------- --------- --------- ------- --------
       0.0000    -100.09768639 -6.33D-09  0.00D+00  0.00D+00 0.0D+00      1.3

          Number of sigma calls:       10
                       o<<<<< (aa):             0.00
                       o<<<<< (bb):             0.00
                       o<<<<< (ab):             0.02
                       o<<<<< (total)           0.03
                       o<<<<< (aa) ff           0.00
                       o<<<<< (aa) gop          0.00
                       o<<<<< (aa) dot          0.00
                       o<<<<< (ab) str          0.00
                       o<<<<< (ab) gath         0.00
                       o<<<<< (ab) dotab        0.00
                       o<<<<< (ab) scat         0.00
                       o<<<<< (ab) sync         0.00
                       o<<<<< Density           0.01
                       o<<<<< Density one       0.00
                       o<<<<< Density two       0.00
                       o<<<<< Density ab        0.01
                       o<<<<< Spin adapt        0.06
                       o<<<<< Symm adapt        0.00

                       o<<<<< (ab) max sync:      0.00
       1.0000    -100.09768639 -1.69D-09 -1.69D-09  4.65D-09 2.7D-01      1.4

          Number of sigma calls:        9
                       o<<<<< (aa):             0.00
                       o<<<<< (bb):             0.00
                       o<<<<< (ab):             0.03
                       o<<<<< (total)           0.03
                       o<<<<< (aa) ff           0.00
                       o<<<<< (aa) gop          0.00
                       o<<<<< (aa) dot          0.00
                       o<<<<< (ab) str          0.00
                       o<<<<< (ab) gath         0.00
                       o<<<<< (ab) dotab        0.00
                       o<<<<< (ab) scat         0.00
                       o<<<<< (ab) sync         0.00
                       o<<<<< Density           0.01
                       o<<<<< Density one       0.00
                       o<<<<< Density two       0.00
                       o<<<<< Density ab        0.01
                       o<<<<< Spin adapt        0.05
                       o<<<<< Symm adapt        0.00

                       o<<<<< (ab) max sync:      0.00
       1.3627    -100.09768639  8.23D-14 -6.15D-13  4.65D-09 1.3D-05      1.5



          %%%%% MacroIteration   4 %%%%%


          Number of sigma calls:        1
                       o<<<<< (aa):             0.00
                       o<<<<< (bb):             0.00
                       o<<<<< (ab):             0.00
                       o<<<<< (total)           0.00
                       o<<<<< (aa) ff           0.00
                       o<<<<< (aa) gop          0.00
                       o<<<<< (aa) dot          0.00
                       o<<<<< (ab) str          0.00
                       o<<<<< (ab) gath         0.00
                       o<<<<< (ab) dotab        0.00
                       o<<<<< (ab) scat         0.00
                       o<<<<< (ab) sync         0.00
                       o<<<<< Density           0.00
                       o<<<<< Density one       0.00
                       o<<<<< Density two       0.00
                       o<<<<< Density ab        0.00
                       o<<<<< Spin adapt        0.00
                       o<<<<< Symm adapt        0.00

                       o<<<<< (ab) max sync:      0.00

           >>>| Valence CI:           -104.777691070407
           >>>| MCSCF energy:         -100.097686390402
           >>>| Gradient norm:          0.362272943D-04




     ==============================
            MCSCF Converged
     ==============================



          Canonical Eigenvalues

              1      
    1  -26.2905
    2   -1.5752
    3   -0.7475
    4   -0.6410
    5   -0.6410
    6   -0.0314
    7   -0.0080
    8   -0.0037
    9    0.3767
   10    0.8194
   11    0.8194
   12    1.0035
   13    1.0035
   14    1.1488
   15    1.6220
   16    2.2378
   17    2.2378
   18    2.4587
   19    2.4587
   20    2.6203
   21    3.4910
   22    3.4910
   23    3.8529
   24    3.8529
   25    4.0690
   26    4.1653
   27    4.1653
   28    4.6642
   29    5.2716
   30    5.2716
   31    6.1060
   32    7.4128
   33    7.4128
   34    7.5089
   35    7.5089
   36    8.0089
   37    8.1137
   38    8.1137
   39    8.8969
   40    8.8969
   41    9.1406
   42    9.2728
   43    9.2728
   44   11.3462


          Converged CI vector

   Index           Coefficient          Config. Occupation
         1          0.98869703          1  2  3  4  5  1  2  3  4  5
         4          0.04044555          1  2  3  4  5  1  2  4  5  6
       169          0.04044555          1  2  4  5  6  1  2  3  4  5
       172         -0.10536944          1  2  4  5  6  1  2  4  5  6
       173          0.02847121          1  2  4  5  6  1  3  4  5  6
       178         -0.02458590          1  2  4  5  6  1  3  4  5  7
       228          0.02847121          1  3  4  5  6  1  2  4  5  6
       229         -0.02280702          1  3  4  5  6  1  3  4  5  6
       508         -0.02458590          1  3  4  5  7  1  2  4  5  6

          Number of sigma calls:        1
                       o<<<<< (aa):             0.00
                       o<<<<< (bb):             0.00
                       o<<<<< (ab):             0.00
                       o<<<<< (total)           0.00
                       o<<<<< (aa) ff           0.00
                       o<<<<< (aa) gop          0.00
                       o<<<<< (aa) dot          0.00
                       o<<<<< (ab) str          0.00
                       o<<<<< (ab) gath         0.00
                       o<<<<< (ab) dotab        0.00
                       o<<<<< (ab) scat         0.00
                       o<<<<< (ab) sync         0.00
                       o<<<<< Density           0.01
                       o<<<<< Density one       0.00
                       o<<<<< Density two       0.00
                       o<<<<< Density ab        0.01
                       o<<<<< Spin adapt        0.00
                       o<<<<< Symm adapt        0.00

                       o<<<<< (ab) max sync:      0.00



          Natural orbital occupation numbers

              1      
    1    2.0000
    2    1.9992
    3    1.9992
    4    1.9947
    5    1.9688
    6    0.0310
    7    0.0050
    8    0.0020


          Number of sigma calls:       20
                       o<<<<< (aa):             0.00
                       o<<<<< (bb):             0.00
                       o<<<<< (ab):             0.05
                       o<<<<< (total)           0.06
                       o<<<<< (aa) ff           0.00
                       o<<<<< (aa) gop          0.00
                       o<<<<< (aa) dot          0.00
                       o<<<<< (ab) str          0.00
                       o<<<<< (ab) gath         0.00
                       o<<<<< (ab) dotab        0.00
                       o<<<<< (ab) scat         0.00
                       o<<<<< (ab) sync         0.00
                       o<<<<< Density           0.01
                       o<<<<< Density one       0.00
                       o<<<<< Density two       0.00
                       o<<<<< Density ab        0.01
                       o<<<<< Spin adapt        0.12
                       o<<<<< Symm adapt        0.00

                       o<<<<< (ab) max sync:      0.00


       Final MCSCF results 
       ------------------- 

       Total MCSCF energy =   -100.097686390402
            Gradient norm =      3.6D-05

    CPU time for solution =      1.8s
   Wall time for solution =      3.1s



                        Analysis of MCSCF natural orbitals
                        ----------------------------------

 Vector    1  Occ=1.999975D+00  E=-2.629052D+01  Symmetry=a
              MO Center=  1.7D-14, -1.0D-01,  2.6D-14, r^2= 1.2D-02
   Bfn.  Coefficient  Atom+Function         Bfn.  Coefficient  Atom+Function  
  ----- ------------  ---------------      ----- ------------  ---------------
     1      0.975696  1 F  s          

 Vector    2  Occ=1.999247D+00  E=-1.575170D+00  Symmetry=a
              MO Center=  8.3D-15, -8.2D-02,  8.8D-13, r^2= 4.6D-01
   Bfn.  Coefficient  Atom+Function         Bfn.  Coefficient  Atom+Function  
  ----- ------------  ---------------      ----- ------------  ---------------
    10      0.468023  1 F  pz                 7      0.383515  1 F  pz         
    13      0.354996  1 F  pz         

 Vector    3  Occ=1.999247D+00  E=-7.475266D-01  Symmetry=a
              MO Center=  7.1D-13, -8.2D-02, -6.7D-15, r^2= 4.6D-01
   Bfn.  Coefficient  Atom+Function         Bfn.  Coefficient  Atom+Function  
  ----- ------------  ---------------      ----- ------------  ---------------
     8      0.468023  1 F  px                 5      0.383515  1 F  px         
    11      0.354996  1 F  px         

 Vector    4  Occ=1.994726D+00  E=-6.410439D-01  Symmetry=a
              MO Center= -6.6D-13, -1.8D-01, -8.4D-13, r^2= 3.5D-01
   Bfn.  Coefficient  Atom+Function         Bfn.  Coefficient  Atom+Function  
  ----- ------------  ---------------      ----- ------------  ---------------
     2      0.562753  1 F  s                  4      0.380715  1 F  s          
     3      0.165541  1 F  s          

 Vector    5  Occ=1.968801D+00  E=-6.410439D-01  Symmetry=a
              MO Center= -8.8D-14,  2.3D-01, -7.1D-14, r^2= 5.8D-01
   Bfn.  Coefficient  Atom+Function         Bfn.  Coefficient  Atom+Function  
  ----- ------------  ---------------      ----- ------------  ---------------
     9      0.385603  1 F  py                 6      0.314310  1 F  py         
    32      0.245814  2 H  s                 12      0.235491  1 F  py         
    31      0.172453  2 H  s          

 Vector    6  Occ=3.099728D-02  E=-3.135499D-02  Symmetry=a
              MO Center= -1.7D-15,  5.4D-01,  1.5D-16, r^2= 6.0D-01
   Bfn.  Coefficient  Atom+Function         Bfn.  Coefficient  Atom+Function  
  ----- ------------  ---------------      ----- ------------  ---------------
    32      0.667626  2 H  s                  6     -0.467981  1 F  py         
     9     -0.453772  1 F  py                31      0.337974  2 H  s          
     4     -0.302947  1 F  s                  2     -0.179448  1 F  s          

 Vector    7  Occ=4.972949D-03  E=-8.049493D-03  Symmetry=a
              MO Center=  7.1D-15, -3.6D-01,  9.1D-15, r^2= 7.2D-01
   Bfn.  Coefficient  Atom+Function         Bfn.  Coefficient  Atom+Function  
  ----- ------------  ---------------      ----- ------------  ---------------
     4      1.257322  1 F  s                  3     -0.790545  1 F  s          
     2     -0.643932  1 F  s                 12     -0.275703  1 F  py         
     6      0.217832  1 F  py         

 Vector    8  Occ=2.033284D-03  E=-3.678463D-03  Symmetry=a
              MO Center=  4.2D-15, -1.6D-01, -2.8D-15, r^2= 4.5D-01
   Bfn.  Coefficient  Atom+Function         Bfn.  Coefficient  Atom+Function  
  ----- ------------  ---------------      ----- ------------  ---------------
    23      0.558137  1 F  d  2              18      0.358271  1 F  d  2       
    21      0.322238  1 F  d  0               6     -0.234007  1 F  py         
    16      0.206846  1 F  d  0              12      0.196575  1 F  py         

 Vector    9  Occ=0.000000D+00  E= 3.766917D-01  Symmetry=a
              MO Center=  1.2D-15,  1.2D+00,  1.3D-15, r^2= 3.4D+00
   Bfn.  Coefficient  Atom+Function         Bfn.  Coefficient  Atom+Function  
  ----- ------------  ---------------      ----- ------------  ---------------
    33      1.826853  2 H  s                  4     -1.205727  1 F  s          
    32     -0.583330  2 H  s                 12     -0.362534  1 F  py         
     2      0.346005  1 F  s                 38     -0.274831  2 H  py         
     1      0.155931  1 F  s          

 Vector   10  Occ=0.000000D+00  E= 8.193679D-01  Symmetry=a
              MO Center=  1.6D-15,  8.4D-01, -7.6D-16, r^2= 1.0D+00
   Bfn.  Coefficient  Atom+Function         Bfn.  Coefficient  Atom+Function  
  ----- ------------  ---------------      ----- ------------  ---------------
    37      1.002572  2 H  px                 8     -0.387265  1 F  px         
     5     -0.162918  1 F  px         

 Vector   11  Occ=0.000000D+00  E= 8.193679D-01  Symmetry=a
              MO Center= -3.7D-16,  8.4D-01, -1.0D-15, r^2= 1.0D+00
   Bfn.  Coefficient  Atom+Function         Bfn.  Coefficient  Atom+Function  
  ----- ------------  ---------------      ----- ------------  ---------------
    39      1.002572  2 H  pz                10     -0.387265  1 F  pz         
     7     -0.162918  1 F  pz         

 Vector   12  Occ=0.000000D+00  E= 1.003536D+00  Symmetry=a
              MO Center= -7.2D-15, -1.5D-01, -3.8D-16, r^2= 1.6D+00
   Bfn.  Coefficient  Atom+Function         Bfn.  Coefficient  Atom+Function  
  ----- ------------  ---------------      ----- ------------  ---------------
    11      1.379631  1 F  px                37     -0.744951  2 H  px         
     8     -0.627077  1 F  px                 5     -0.199564  1 F  px         

 Vector   13  Occ=0.000000D+00  E= 1.003536D+00  Symmetry=a
              MO Center= -7.4D-17, -1.5D-01, -5.6D-15, r^2= 1.6D+00
   Bfn.  Coefficient  Atom+Function         Bfn.  Coefficient  Atom+Function  
  ----- ------------  ---------------      ----- ------------  ---------------
    13      1.379631  1 F  pz                39     -0.744951  2 H  pz         
    10     -0.627077  1 F  pz                 7     -0.199564  1 F  pz         

 Vector   14  Occ=0.000000D+00  E= 1.148808D+00  Symmetry=a
              MO Center=  4.2D-15,  9.5D-01,  3.0D-15, r^2= 1.6D+00
   Bfn.  Coefficient  Atom+Function         Bfn.  Coefficient  Atom+Function  
  ----- ------------  ---------------      ----- ------------  ---------------
    38      1.155357  2 H  py                32      0.769640  2 H  s          
    12     -0.730746  1 F  py                33     -0.538263  2 H  s          
     9      0.465597  1 F  py                 4      0.270208  1 F  s          
     2      0.263375  1 F  s                 23      0.180472  1 F  d  2       

 Vector   15  Occ=0.000000D+00  E= 1.622027D+00  Symmetry=a
              MO Center=  2.5D-16, -3.1D-01,  1.7D-17, r^2= 2.4D+00
   Bfn.  Coefficient  Atom+Function         Bfn.  Coefficient  Atom+Function  
  ----- ------------  ---------------      ----- ------------  ---------------
     4      5.635811  1 F  s                 32     -5.330905  2 H  s          
    12      3.606407  1 F  py                38      3.346982  2 H  py         
    23     -0.793190  1 F  d  2               2     -0.556955  1 F  s          
    21     -0.457943  1 F  d  0               9      0.408729  1 F  py         
    33     -0.344191  2 H  s                 44      0.282427  2 H  d  2       

 Vector   16  Occ=0.000000D+00  E= 2.237822D+00  Symmetry=a
              MO Center=  7.3D-16, -4.1D-02, -4.8D-16, r^2= 6.1D-01
   Bfn.  Coefficient  Atom+Function         Bfn.  Coefficient  Atom+Function  
  ----- ------------  ---------------      ----- ------------  ---------------
    22      0.963883  1 F  d  1              43      0.163938  2 H  d  1       

 Vector   17  Occ=0.000000D+00  E= 2.237822D+00  Symmetry=a
              MO Center=  9.1D-16, -4.1D-02, -1.7D-16, r^2= 6.1D-01
   Bfn.  Coefficient  Atom+Function         Bfn.  Coefficient  Atom+Function  
  ----- ------------  ---------------      ----- ------------  ---------------
    21      0.834752  1 F  d  0              23     -0.481934  1 F  d  2       

 Vector   18  Occ=0.000000D+00  E= 2.458699D+00  Symmetry=a
              MO Center=  2.0D-16,  1.3D-01,  4.3D-16, r^2= 8.1D-01
   Bfn.  Coefficient  Atom+Function         Bfn.  Coefficient  Atom+Function  
  ----- ------------  ---------------      ----- ------------  ---------------
    20      0.968171  1 F  d -1              39     -0.562945  2 H  pz         
    13      0.299173  1 F  pz                41     -0.171739  2 H  d -1       


 Wrote Lagrangian and 1- and 2-particle density matrices to ./HF.mcpdm


     Multipole analysis of the density
     ---------------------------------

     L   x y z        total        nuclear
     -   - - -        -----        -------
     0   0 0 0     -0.000000     10.000000

     1   1 0 0      0.000000      0.000000
     1   0 1 0      0.770192      0.000000
     1   0 0 1      0.000000      0.000000

     2   2 0 0     -4.187377      0.000000
     2   1 1 0     -0.000000      0.000000
     2   1 0 1     -0.000000      0.000000
     2   0 2 0     -2.440500      3.328396
     2   0 1 1     -0.000000      0.000000
     2   0 0 2     -4.187377      0.000000


  Mulliken analysis of the total density
  --------------------------------------

    Atom       Charge   Shell Charges
 -----------   ------   -------------------------------------------------------
    1 F    9     9.35   1.95  1.06  0.27  0.65  1.54  2.43  1.44  0.00  0.01  0.00
    2 H    1     0.65   0.21  0.33  0.03  0.02  0.06  0.01

    Mulliken analysis of the active space density
    ---------------------------------------------

    Atom       Charge   Shell Charges
 -----------   ------   -------------------------------------------------------
    1 F    9     9.35   1.95  1.06  0.27  0.65  1.54  2.43  1.44  0.00  0.01  0.00
    2 H    1     0.65   0.21  0.33  0.03  0.02  0.06  0.01

 Parallel integral file used       3 records with       0 large values


 Task  times  cpu:        1.8s     wall:        3.2s


                                NWChem Input Module
                                -------------------


                                 NWChem SCF Module
                                 -----------------


                                        HF



  ao basis        = "ao basis"
  functions       =    44
  atoms           =     2
  closed shells   =     5
  open shells     =     0
  charge          =   0.00
  wavefunction    = RHF 
  input vectors   = ./HF.mos
  output vectors  = ./HF-trash.mos
  use symmetry    = F
  symmetry adapt  = F


 Summary of "ao basis" -> "ao basis" (spherical)
 ------------------------------------------------------------------------------
       Tag                 Description            Shells   Functions and Types
 ---------------- ------------------------------  ------  ---------------------
 F                          cc-pVTZ                 10       30   4s3p2d1f
 H                          cc-pVTZ                  6       14   3s2p1d



 Forming initial guess at       3.2s


 Loading old vectors from job with title :

HF


 Starting SCF solution at       3.2s



 ----------------------------------------------
         Quadratically convergent ROHF

 Convergence threshold     :          1.000E-04
 Maximum no. of iterations :           30
 Final Fock-matrix accuracy:          1.000E-07
 ----------------------------------------------


 Integral file          = ./HF.aoints.0
 Record size in doubles =  65536        No. of integs per rec  =  43688
 Max. records in memory =     18        Max. records in file   = 250991
 No. of bits per label  =      8        No. of bits per value  =     64


 #quartets = 9.316D+03 #integrals = 1.251D+05 #direct =  0.0% #cached =100.0%



       Final RHF  results 
       ------------------ 

         Total SCF energy =   -100.043482046428
      One-electron energy =   -149.734176686746
      Two-electron energy =     45.010689960313
 Nuclear repulsion energy =      4.680004680005

        Time for solution =      0.0s


             Final eigenvalues
             -----------------

              1      
    1  -26.2905
    2   -1.5752
    3   -0.7475
    4   -0.6410
    5   -0.6410
    6   -0.0314
    7   -0.0080
    8   -0.0037
    9    0.3767
   10    0.8194
   11    0.8194
   12    1.0035
   13    1.0035
   14    1.1488
   15    1.6220

                       ROHF Final Molecular Orbital Analysis
                       -------------------------------------

 Vector    2  Occ=2.000000D+00  E=-1.575170D+00
              MO Center=  8.3D-15, -8.2D-02,  8.8D-13, r^2= 4.6D-01
   Bfn.  Coefficient  Atom+Function         Bfn.  Coefficient  Atom+Function  
  ----- ------------  ---------------      ----- ------------  ---------------
    10      0.468023  1 F  pz                 7      0.383515  1 F  pz         
    13      0.354996  1 F  pz         

 Vector    3  Occ=2.000000D+00  E=-7.475266D-01
              MO Center=  7.1D-13, -8.2D-02, -6.7D-15, r^2= 4.6D-01
   Bfn.  Coefficient  Atom+Function         Bfn.  Coefficient  Atom+Function  
  ----- ------------  ---------------      ----- ------------  ---------------
     8      0.468023  1 F  px                 5      0.383515  1 F  px         
    11      0.354996  1 F  px         

 Vector    4  Occ=2.000000D+00  E=-6.410439D-01
              MO Center= -6.6D-13, -1.8D-01, -8.4D-13, r^2= 3.5D-01
   Bfn.  Coefficient  Atom+Function         Bfn.  Coefficient  Atom+Function  
  ----- ------------  ---------------      ----- ------------  ---------------
     2      0.562753  1 F  s                  4      0.380715  1 F  s          
     3      0.165541  1 F  s          

 Vector    5  Occ=2.000000D+00  E=-6.410439D-01
              MO Center= -8.8D-14,  2.3D-01, -7.1D-14, r^2= 5.8D-01
   Bfn.  Coefficient  Atom+Function         Bfn.  Coefficient  Atom+Function  
  ----- ------------  ---------------      ----- ------------  ---------------
     9      0.385603  1 F  py                 6      0.314310  1 F  py         
    32      0.245814  2 H  s                 12      0.235491  1 F  py         
    31      0.172453  2 H  s          

 Vector    6  Occ=0.000000D+00  E=-3.135499D-02
              MO Center= -1.7D-15,  5.4D-01,  1.5D-16, r^2= 6.0D-01
   Bfn.  Coefficient  Atom+Function         Bfn.  Coefficient  Atom+Function  
  ----- ------------  ---------------      ----- ------------  ---------------
    32      0.667626  2 H  s                  6     -0.467981  1 F  py         
     9     -0.453772  1 F  py                31      0.337974  2 H  s          
     4     -0.302947  1 F  s                  2     -0.179448  1 F  s          

 Vector    7  Occ=0.000000D+00  E=-8.049493D-03
              MO Center=  7.1D-15, -3.6D-01,  9.1D-15, r^2= 7.2D-01
   Bfn.  Coefficient  Atom+Function         Bfn.  Coefficient  Atom+Function  
  ----- ------------  ---------------      ----- ------------  ---------------
     4      1.257322  1 F  s                  3     -0.790545  1 F  s          
     2     -0.643932  1 F  s                 12     -0.275703  1 F  py         
     6      0.217832  1 F  py         

 Vector    8  Occ=0.000000D+00  E=-3.678463D-03
              MO Center=  4.2D-15, -1.6D-01, -2.8D-15, r^2= 4.5D-01
   Bfn.  Coefficient  Atom+Function         Bfn.  Coefficient  Atom+Function  
  ----- ------------  ---------------      ----- ------------  ---------------
    23      0.558137  1 F  d  2              18      0.358271  1 F  d  2       
    21      0.322238  1 F  d  0               6     -0.234007  1 F  py         
    16      0.206846  1 F  d  0              12      0.196575  1 F  py         

 Vector    9  Occ=0.000000D+00  E= 3.766917D-01
              MO Center=  1.2D-15,  1.2D+00,  1.3D-15, r^2= 3.4D+00
   Bfn.  Coefficient  Atom+Function         Bfn.  Coefficient  Atom+Function  
  ----- ------------  ---------------      ----- ------------  ---------------
    33      1.826853  2 H  s                  4     -1.205727  1 F  s          
    32     -0.583330  2 H  s                 12     -0.362534  1 F  py         
     2      0.346005  1 F  s                 38     -0.274831  2 H  py         
     1      0.155931  1 F  s          

 Vector   10  Occ=0.000000D+00  E= 8.193679D-01
              MO Center=  1.6D-15,  8.4D-01, -7.6D-16, r^2= 1.0D+00
   Bfn.  Coefficient  Atom+Function         Bfn.  Coefficient  Atom+Function  
  ----- ------------  ---------------      ----- ------------  ---------------
    37      1.002572  2 H  px                 8     -0.387265  1 F  px         
     5     -0.162918  1 F  px         

 Vector   11  Occ=0.000000D+00  E= 8.193679D-01
              MO Center= -3.7D-16,  8.4D-01, -1.0D-15, r^2= 1.0D+00
   Bfn.  Coefficient  Atom+Function         Bfn.  Coefficient  Atom+Function  
  ----- ------------  ---------------      ----- ------------  ---------------
    39      1.002572  2 H  pz                10     -0.387265  1 F  pz         
     7     -0.162918  1 F  pz         

 Vector   12  Occ=0.000000D+00  E= 1.003536D+00
              MO Center= -7.2D-15, -1.5D-01, -3.8D-16, r^2= 1.6D+00
   Bfn.  Coefficient  Atom+Function         Bfn.  Coefficient  Atom+Function  
  ----- ------------  ---------------      ----- ------------  ---------------
    11      1.379631  1 F  px                37     -0.744951  2 H  px         
     8     -0.627077  1 F  px                 5     -0.199564  1 F  px         

 Vector   13  Occ=0.000000D+00  E= 1.003536D+00
              MO Center= -7.4D-17, -1.5D-01, -5.6D-15, r^2= 1.6D+00
   Bfn.  Coefficient  Atom+Function         Bfn.  Coefficient  Atom+Function  
  ----- ------------  ---------------      ----- ------------  ---------------
    13      1.379631  1 F  pz                39     -0.744951  2 H  pz         
    10     -0.627077  1 F  pz                 7     -0.199564  1 F  pz         

 Vector   14  Occ=0.000000D+00  E= 1.148808D+00
              MO Center=  4.2D-15,  9.5D-01,  3.0D-15, r^2= 1.6D+00
   Bfn.  Coefficient  Atom+Function         Bfn.  Coefficient  Atom+Function  
  ----- ------------  ---------------      ----- ------------  ---------------
    38      1.155357  2 H  py                32      0.769640  2 H  s          
    12     -0.730746  1 F  py                33     -0.538263  2 H  s          
     9      0.465597  1 F  py                 4      0.270208  1 F  s          
     2      0.263375  1 F  s                 23      0.180472  1 F  d  2       

 Vector   15  Occ=0.000000D+00  E= 1.622027D+00
              MO Center=  2.5D-16, -3.1D-01,  1.7D-17, r^2= 2.4D+00
   Bfn.  Coefficient  Atom+Function         Bfn.  Coefficient  Atom+Function  
  ----- ------------  ---------------      ----- ------------  ---------------
     4      5.635811  1 F  s                 32     -5.330905  2 H  s          
    12      3.606407  1 F  py                38      3.346982  2 H  py         
    23     -0.793190  1 F  d  2               2     -0.556955  1 F  s          
    21     -0.457943  1 F  d  0               9      0.408729  1 F  py         
    33     -0.344191  2 H  s                 44      0.282427  2 H  d  2       


 center of mass
 --------------
 x =   0.00000000 y =  -0.09543150 z =   0.00000000

 moments of inertia (a.u.)
 ------------------
           3.539398396623           0.000000000000           0.000000000000
           0.000000000000           0.000000000000           0.000000000000
           0.000000000000           0.000000000000           3.539398396623

  Mulliken analysis of the total density
  --------------------------------------

    Atom       Charge   Shell Charges
 -----------   ------   -------------------------------------------------------
    1 F    9     9.35   1.95  1.06  0.27  0.65  1.53  2.43  1.45  0.00  0.01  0.00
    2 H    1     0.65   0.21  0.32  0.03  0.02  0.06  0.01

       Multipole analysis of the density wrt the origin
       ------------------------------------------------

     L   x y z        total         open         nuclear
     -   - - -        -----         ----         -------
     0   0 0 0     -0.000000      0.000000     10.000000

     1   1 0 0      0.000000      0.000000      0.000000
     1   0 1 0      0.786005      0.000000      0.000000
     1   0 0 1      0.000000      0.000000      0.000000

     2   2 0 0     -4.185115      0.000000      0.000000
     2   1 1 0     -0.000000      0.000000      0.000000
     2   1 0 1     -0.000000      0.000000      0.000000
     2   0 2 0     -2.409105      0.000000      3.328396
     2   0 1 1     -0.000000      0.000000      0.000000
     2   0 0 2     -4.185115      0.000000      0.000000


 Parallel integral file used       3 records with       0 large values

 ------------------------------------
     Number of active orbitals      8
     Number of active alpha electrons      5
     Number of active beta electrons       5
 ------------------------------------
                   NWChem Extensible Many-Electron Theory Module
                   ---------------------------------------------

              ======================================================
                   This portion of the program was automatically
                  generated by a Tensor Contraction Engine (TCE).
                  The development of this portion of the program
                 and TCE was supported by US Department of Energy,
                Office of Science, Office of Basic Energy Science.
                      TCE is a product of Battelle and PNNL.
              Please cite: S.Hirata, J.Phys.Chem.A 107, 9887 (2003).
              ======================================================

                                        HF


            General Information
            -------------------
      Number of processors :     1
         Wavefunction type : Restricted Hartree-Fock
          No. of electrons :    10
           Alpha electrons :     5
            Beta electrons :     5
           No. of orbitals :    88
            Alpha orbitals :    44
             Beta orbitals :    44
        Alpha frozen cores :     0
         Beta frozen cores :     0
     Alpha frozen virtuals :    36
      Beta frozen virtuals :    36
         Spin multiplicity : singlet 
    Number of AO functions :    44
       Number of AO shells :    16
        Use of symmetry is : off
      Symmetry adaption is : off
         Schwarz screening : 0.10D-09

          Correlation Information
          -----------------------
          Calculation type : Coupled-cluster singles & doubles                           
   Perturbative correction : none                                                        
            Max iterations :      500
        Residual threshold : 0.10D-06
     T(0) DIIS level shift : 0.00D+00
     L(0) DIIS level shift : 0.00D+00
     T(1) DIIS level shift : 0.00D+00
     L(1) DIIS level shift : 0.00D+00
     T(R) DIIS level shift : 0.00D+00
     T(I) DIIS level shift : 0.00D+00
   CC-T/L Amplitude update :  5-th order DIIS
                I/O scheme : Global Array Library
        L-threshold :  0.10D-06
        EOM-threshold :  0.10D-06
 no EOMCCSD initial starts read in
 TCE RESTART OPTIONS
 READ_INT:   F
 WRITE_INT:  F
 READ_TA:    F
 WRITE_TA:   F
 READ_XA:    F
 WRITE_XA:   F
 READ_IN3:   F
 WRITE_IN3:  F
 SLICE:      F
 D4D5:       F
 quantumc:   T
 qrotation:  F
 pwtce:      F
 qducc:      F
 nacto:                         0
 nrotv:                         0
 nrot:                          0

            Memory Information
            ------------------
          Available GA space size is    1610610800 doubles
          Available MA space size is    1610610316 doubles

 Maximum block size supplied by input
 Maximum block size         1 doubles

 tile_dim =      1

 Block   Spin    Irrep     Size     Offset   Alpha
 -------------------------------------------------
   1    alpha     a      1 doubles       0       1
   2    alpha     a      1 doubles       1       2
   3    alpha     a      1 doubles       2       3
   4    alpha     a      1 doubles       3       4
   5    alpha     a      1 doubles       4       5
   6    beta      a      1 doubles       5       1
   7    beta      a      1 doubles       6       2
   8    beta      a      1 doubles       7       3
   9    beta      a      1 doubles       8       4
  10    beta      a      1 doubles       9       5
  11    alpha     a      1 doubles      10      11
  12    alpha     a      1 doubles      11      12
  13    alpha     a      1 doubles      12      13
  14    beta      a      1 doubles      13      11
  15    beta      a      1 doubles      14      12
  16    beta      a      1 doubles      15      13

 Global array virtual files algorithm will be used

 Parallel file system coherency ......... OK

 Integral file          = ./HF.aoints.0
 Record size in doubles =  65536        No. of integs per rec  =  43688
 Max. records in memory =     18        Max. records in file   = 250991
 No. of bits per label  =      8        No. of bits per value  =     64


 #quartets = 9.316D+03 #integrals = 1.251D+05 #direct =  0.0% #cached =100.0%


 Fock matrix recomputed
 1-e file size   =               64
 1-e file name   = ./HF.f1
 Cpu & wall time / sec            0.0            0.1
 4-electron integrals stored in orbital form

 v2    file size   =              666
 4-index algorithm nr.  13 is used
 imaxsize =       30
 imaxsize ichop =        0
 begin_one_electron_integrals
    1    1       -40.9349001292
    4    1         0.7928054047
    5    1         0.0222248274
    6    1        -0.1776787228
    7    1        -0.7454759056
    8    1         0.0520367049
    2    2        -8.4221289401
    3    3        -8.4221289952
    1    4         0.7928054047
    4    4        -9.3636982585
    5    4        -0.0734113656
    6    4         0.3641062541
    7    4         2.2100934350
    8    4        -0.1181152119
    1    5         0.0222248274
    4    5        -0.0734113656
    5    5        -7.7242320205
    6    5         2.4784199633
    7    5        -0.5597362767
    8    5         0.7478998708
    1    6        -0.1776787228
    4    6         0.3641062541
    5    6         2.4784199633
    6    6        -6.7439081830
    7    6        -0.0201254176
    8    6        -0.2063513758
    1    7        -0.7454759056
    4    7         2.2100934350
    5    7        -0.5597362767
    6    7        -0.0201254176
    7    7        -5.8419177682
    8    7         0.1163261393
    1    8         0.0520367049
    4    8        -0.1181152119
    5    8         0.7478998708
    6    8        -0.2063513758
    7    8         0.1163261393
    8    8        -5.0128517050
 end_one_electron_integrals
 begin_two_electron_integrals
    1    1    1    1        5.3531168587
    2    1    2    1        0.0392348525
    3    1    3    1        0.0392348533
    4    1    1    1       -0.5405506297
    4    1    4    1        0.0888404905
    4    1    2    2       -0.0163505473
    4    1    3    3       -0.0163505476
    5    1    1    1       -0.0201589116
    5    1    4    1       -0.0010822681
    5    1    5    1        0.0271223858
    5    1    2    2       -0.0000142614
    5    1    3    3       -0.0000142614
    5    1    4    4       -0.0092837970
    6    1    1    1        0.1370918694
    6    1    4    1       -0.0172242080
    6    1    5    1       -0.0358322587
    6    1    6    1        0.0513870038
    6    1    2    2        0.0023855923
    6    1    3    3        0.0023855896
    6    1    4    4        0.0158976008
    6    1    5    4       -0.0352343098
    6    1    5    5       -0.0066545887
    7    1    1    1        0.5912625726
    7    1    4    1       -0.1029823649
    7    1    5    1        0.0098081295
    7    1    6    1        0.0085790405
    7    1    7    1        0.1231947923
    7    1    2    2        0.0139525589
    7    1    3    3        0.0139525518
    7    1    4    4        0.0201633912
    7    1    5    4        0.0117176048
    7    1    6    4       -0.0147803293
    7    1    5    5        0.0110379799
    7    1    6    5       -0.0119999936
    7    1    6    6        0.0217933271
    8    1    1    1       -0.0382629316
    8    1    4    1        0.0090210857
    8    1    5    1       -0.0134552093
    8    1    6    1        0.0158710868
    8    1    7    1       -0.0144565912
    8    1    8    1        0.0101715626
    8    1    2    2        0.0032400757
    8    1    3    3        0.0032401393
    8    1    4    4        0.0017391005
    8    1    5    4       -0.0115091747
    8    1    6    4        0.0086693543
    8    1    7    4       -0.0004315677
    8    1    5    5       -0.0103086770
    8    1    6    5        0.0070748030
    8    1    7    5        0.0067169717
    8    1    6    6       -0.0135603458
    8    1    7    6       -0.0088380127
    8    1    7    7        0.0029733073
    2    2    1    1        1.2190884043
    2    2    2    2        0.8865477418
    3    2    3    2        0.0433679844
    4    2    2    1        0.0400678634
    4    2    4    2        0.1691686329
    5    2    2    1        0.0020317229
    5    2    4    2        0.0074931548
    5    2    5    2        0.0360478434
    6    2    2    1       -0.0092009176
    6    2    4    2       -0.0270441473
    6    2    5    2       -0.0211274103
    6    2    6    2        0.0262943055
    7    2    2    1       -0.0209329760
    7    2    4    2       -0.0219501445
    7    2    5    2        0.0020245812
    7    2    6    2        0.0061652911
    7    2    7    2        0.0459790532
    8    2    2    1        0.0177548182
    8    2    4    2        0.0731337510
    8    2    5    2        0.0027936186
    8    2    6    2       -0.0120128177
    8    2    7    2       -0.0067689212
    8    2    8    2        0.0527828803
    3    3    1    1        1.2190884162
    3    3    2    2        0.7998117787
    3    3    3    3        0.8865477535
    4    3    3    1        0.0400678642
    4    3    4    3        0.1691686355
    5    3    3    1        0.0020317229
    5    3    4    3        0.0074931550
    5    3    5    3        0.0360478433
    6    3    3    1       -0.0092009286
    6    3    4    3       -0.0270441957
    6    3    5    3       -0.0211274139
    6    3    6    3        0.0262943225
    7    3    3    1       -0.0209330060
    7    3    4    3       -0.0219502727
    7    3    5    3        0.0020245733
    7    3    6    3        0.0061653170
    7    3    7    3        0.0459790758
    8    3    3    1        0.0177550669
    8    3    4    3        0.0731348082
    8    3    5    3        0.0027936946
    8    3    6    3       -0.0120130340
    8    3    7    3       -0.0067690818
    8    3    8    3        0.0527838966
    4    4    1    1        1.2820902425
    4    4    4    1       -0.0231482017
    4    4    2    2        0.8577928013
    4    4    3    3        0.8577928073
    4    4    4    4        0.9076948021
    5    4    1    1       -0.0368126175
    5    4    4    1       -0.0035988253
    5    4    5    1        0.0290404433
    5    4    2    2       -0.0084994259
    5    4    3    3       -0.0084994258
    5    4    4    4       -0.0508493299
    5    4    5    4        0.1364962633
    6    4    1    1       -0.0807437834
    6    4    4    1        0.0077081319
    6    4    5    1       -0.0233554463
    6    4    6    1        0.0278508975
    6    4    2    2       -0.0415657493
    6    4    3    3       -0.0415657714
    6    4    4    4       -0.0128814031
    6    4    5    4       -0.0752588473
    6    4    6    4        0.0660743795
    6    4    5    5       -0.0286824575
    7    4    1    1       -0.5706702433
    7    4    4    1        0.0279656023
    7    4    5    1        0.0092731612
    7    4    6    1       -0.0173047031
    7    4    7    1       -0.0254527305
    7    4    2    2       -0.1843385715
    7    4    3    3       -0.1843386310
    7    4    4    4       -0.2045120958
    7    4    5    4        0.0212683085
    7    4    6    4        0.0009776070
    7    4    7    4        0.1369935473
    7    4    5    5       -0.1505018937
    7    4    6    5        0.1198879793
    7    4    6    6       -0.1591744279
    8    4    1    1        0.0413362587
    8    4    4    1       -0.0027253105
    8    4    5    1       -0.0010808385
    8    4    6    1        0.0012956232
    8    4    7    1        0.0036124019
    8    4    8    1        0.0077581699
    8    4    2    2        0.0410124215
    8    4    3    3        0.0410128950
    8    4    4    4        0.0035015819
    8    4    5    4        0.0136356186
    8    4    6    4       -0.0192546937
    8    4    7    4       -0.0022670942
    8    4    8    4        0.0807144437
    8    4    5    5       -0.0453152146
    8    4    6    5        0.0190099739
    8    4    7    5        0.0043172539
    8    4    6    6       -0.0274262416
    8    4    7    6        0.0040603254
    8    4    7    7       -0.0084451115
    5    5    1    1        1.0223462931
    5    5    4    1       -0.0124617311
    5    5    5    1        0.0077563574
    5    5    2    2        0.7156138186
    5    5    3    3        0.7156138221
    5    5    4    4        0.7526931956
    5    5    5    4        0.0510535801
    5    5    5    5        0.7785160555
    6    5    1    1       -0.5364012746
    6    5    4    1        0.0147763582
    6    5    5    1       -0.0012793203
    6    5    6    1       -0.0011036619
    6    5    2    2       -0.2261244802
    6    5    3    3       -0.2261244839
    6    5    4    4       -0.2550927536
    6    5    5    4        0.0412909152
    6    5    6    4        0.0273313192
    6    5    5    5       -0.1380629524
    6    5    6    5        0.2317895421
    7    5    1    1        0.1278656355
    7    5    4    1       -0.0014700100
    7    5    5    1       -0.0189958677
    7    5    6    1        0.0245260355
    7    5    7    1       -0.0050905110
    7    5    2    2        0.0445472469
    7    5    3    3        0.0445472456
    7    5    4    4        0.0578709678
    7    5    5    4       -0.0301441399
    7    5    6    4        0.0354163194
    7    5    7    4       -0.0467324673
    7    5    5    5        0.0461997291
    7    5    6    5       -0.0078140025
    7    5    7    5        0.0494105825
    7    5    6    6        0.0492002199
    8    5    1    1       -0.1600459394
    8    5    4    1        0.0091968043
    8    5    5    1       -0.0237870531
    8    5    6    1        0.0275898133
    8    5    7    1       -0.0145255868
    8    5    8    1        0.0123793791
    8    5    2    2       -0.0604443358
    8    5    3    3       -0.0604443110
    8    5    4    4       -0.0345496509
    8    5    5    4       -0.1126180761
    8    5    6    4        0.0662295403
    8    5    7    4        0.0261853420
    8    5    8    4       -0.0058135560
    8    5    5    5       -0.1141509826
    8    5    6    5        0.0123273765
    8    5    7    5        0.0137037129
    8    5    8    5        0.1357150328
    8    5    6    6       -0.1240322390
    8    5    7    6       -0.0572431250
    8    5    7    7        0.0006787222
    6    6    1    1        1.0829211016
    6    6    4    1       -0.0222418821
    6    6    5    1        0.0130433232
    6    6    6    1       -0.0115127192
    6    6    2    2        0.6805393242
    6    6    3    3        0.6805393364
    6    6    4    4        0.7009461284
    6    6    5    4        0.0702679495
    6    6    6    4       -0.0346932576
    6    6    5    5        0.7600304726
    6    6    6    5       -0.0924999781
    6    6    6    6        0.8056358692
    7    6    1    1       -0.0284431246
    7    6    4    1       -0.0041999723
    7    6    5    1        0.0242611488
    7    6    6    1       -0.0298561236
    7    6    7    1        0.0124659029
    7    6    2    2       -0.0011035152
    7    6    3    3       -0.0011035034
    7    6    4    4       -0.0239839334
    7    6    5    4        0.0731584018
    7    6    6    4       -0.0482007812
    7    6    7    4        0.0224526277
    7    6    5    5        0.0249675613
    7    6    6    5        0.0232970778
    7    6    7    5       -0.0331799332
    7    6    6    6        0.0357641603
    7    6    7    6        0.0530930954
    8    6    1    1        0.0993725837
    8    6    4    1       -0.0095524805
    8    6    5    1        0.0200698276
    8    6    6    1       -0.0232212632
    8    6    7    1        0.0140637541
    8    6    8    1       -0.0118802025
    8    6    2    2        0.0062000954
    8    6    3    3        0.0061999808
    8    6    4    4       -0.0126557702
    8    6    5    4        0.0650595209
    8    6    6    4       -0.0495186913
    8    6    7    4       -0.0093946740
    8    6    8    4        0.0001425475
    8    6    5    5        0.0292927113
    8    6    6    5       -0.0228894844
    8    6    7    5       -0.0240056832
    8    6    8    5       -0.0747937103
    8    6    6    6        0.0455865956
    8    6    7    6        0.0371305965
    8    6    8    6        0.0634187479
    8    6    7    7       -0.0194243851
    7    7    1    1        1.1966412572
    7    7    4    1       -0.0342205367
    7    7    5    1       -0.0190732350
    7    7    6    1        0.0308340290
    7    7    7    1        0.0291112878
    7    7    2    2        0.7176918252
    7    7    3    3        0.7176918358
    7    7    4    4        0.7653196682
    7    7    5    4       -0.0766883732
    7    7    6    4        0.0124344054
    7    7    7    4       -0.1621856403
    7    7    5    5        0.6322140455
    7    7    6    5       -0.2102533461
    7    7    7    5        0.0523004062
    7    7    6    6        0.5927833294
    7    7    7    6       -0.0445774360
    7    7    7    7        0.7041366490
    8    7    1    1       -0.0300897135
    8    7    4    1        0.0040233643
    8    7    5    1        0.0040830663
    8    7    6    1       -0.0054955880
    8    7    7    1       -0.0038654183
    8    7    8    1       -0.0054174776
    8    7    2    2        0.0037594904
    8    7    3    3        0.0037594211
    8    7    4    4        0.0029801098
    8    7    5    4        0.0212547537
    8    7    6    4       -0.0082579928
    8    7    7    4       -0.0042685957
    8    7    8    4       -0.0044777314
    8    7    5    5        0.0219038903
    8    7    6    5       -0.0102711699
    8    7    7    5        0.0072890517
    8    7    8    5       -0.0226624589
    8    7    6    6        0.0252338938
    8    7    7    6        0.0043232751
    8    7    8    6        0.0134772086
    8    7    7    7       -0.0067394030
    8    7    8    7        0.0317601610
    8    8    1    1        1.0585039036
    8    8    4    1       -0.0075946784
    8    8    5    1        0.0065484347
    8    8    6    1       -0.0068796329
    8    8    7    1        0.0066695901
    8    8    8    1       -0.0081618528
    8    8    2    2        0.7805775454
    8    8    3    3        0.7805781337
    8    8    4    4        0.8353633950
    8    8    5    4       -0.0099235730
    8    8    6    4       -0.0273727960
    8    8    7    4       -0.1579836110
    8    8    8    4       -0.0486329240
    8    8    5    5        0.7596107027
    8    8    6    5       -0.2291137324
    8    8    7    5        0.0277826424
    8    8    8    5       -0.0627652700
    8    8    6    6        0.6991803077
    8    8    7    6        0.0053962506
    8    8    8    6        0.0091888483
    8    8    7    7        0.7023428300
    8    8    8    7        0.0102923225
    8    8    8    8        0.8490483792
 end_two_electron_integrals
 enrep_tce =    4.6800046800046768     
  EHF(A)             =      -100.04348205
  EHF(total)         =      -100.04348205
  Shift (HFtot-HFA)  =        -0.00000000
 Cpu & wall time / sec            0.4            0.4
 T1-number-of-tasks                   15

 t1 file size   =               15
 t1 file name   = ./HF.t1
 t1 file handle =       -998
 T2-number-of-boxes                  315

 t2 file size   =              315
 t2 file name   = ./HF.t2
 t2 file handle =       -996
CCSD iterations
 ---------------------------------------------------------
 Iter          Residuum       Correlation     Cpu    Wall 
 ---------------------------------------------------------
NEW TASK SCHEDULING
CCSD_T1_NTS --- OK
CCSD_T2_NTS --- OK
    1   1.1371335438054  -0.1463912088663     1.6     2.5
    2   4.2136876753232   0.1986411906790     1.9     2.5
    3  19.8324488687726  -0.8444263871429     2.0     2.5
    4  61.9905590384692   3.2091711422253     1.8     2.5
    5 471.8665462856419  -6.7468086393469     1.9     2.5
 MICROCYCLE DIIS UPDATE:                    5                    5
    6   0.3427686542402  -0.0612031558722     1.8     2.5
    7   1.7490963372390  -0.0267312151102     1.8     2.5
    8   9.2320095461995  -0.1926662604229     1.8     2.5
    9  43.9841099120083   0.6916488644166     1.9     2.5
   10 317.1452504841438  -3.0763156842326     1.8     2.5
 MICROCYCLE DIIS UPDATE:                   10                    5
   11   0.0256429317243  -0.0543093910873     1.8     2.5
   12   0.1277390602246  -0.0553851865519     1.8     2.5
   13   0.6620416476532  -0.0453643568548     1.8     2.5
   14   3.4806039325657  -0.1027203344126     1.7     2.5
   15  17.6867402281132   0.2050598797532     1.7     2.5
 MICROCYCLE DIIS UPDATE:                   15                    5
   16   0.0092871022931  -0.0539671566316     1.9     2.5
   17   0.0482459735212  -0.0548247928346     1.8     2.5
   18   0.2531057041344  -0.0506383849231     1.9     2.5
   19   1.3336340024655  -0.0723428550405     1.9     2.5
   20   6.9387912615281   0.0407882224518     1.9     2.6
 MICROCYCLE DIIS UPDATE:                   20                    5
   21   0.0018393877712  -0.0541391125662     2.0     2.5
   22   0.0096028855897  -0.0542628616044     1.9     2.5
   23   0.0505678561740  -0.0534903801046     1.6     2.5
   24   0.2666637775705  -0.0576089737245     1.8     2.5
   25   1.4029953801075  -0.0359489172370     1.9     2.5
 MICROCYCLE DIIS UPDATE:                   25                    5
   26   0.0000784571650  -0.0541440405693     2.0     2.5
   27   0.0003385612356  -0.0541500807749     1.8     2.5
   28   0.0017827224495  -0.0541288671492     1.8     2.5
   29   0.0094483062979  -0.0542496583409     1.8     2.5
   30   0.0501409891281  -0.0535732664981     1.8     2.5
 MICROCYCLE DIIS UPDATE:                   30                    5
   31   0.0000069368824  -0.0541473854620     1.8     2.5
   32   0.0000165062872  -0.0541458776601     1.7     2.5
   33   0.0000704391585  -0.0541492672076     1.6     2.5
   34   0.0003279506037  -0.0541377996579     1.7     2.5
   35   0.0015949360438  -0.0541817457135     1.9     2.5
 MICROCYCLE DIIS UPDATE:                   35                    5
   36   0.0000011255396  -0.0541467271613     1.9     2.5
   37   0.0000023189680  -0.0541467893100     1.9     2.5
   38   0.0000101657648  -0.0541467023212     1.7     2.5
   39   0.0000492132681  -0.0541473178695     1.8     2.5
   40   0.0002493841087  -0.0541435130690     1.8     2.5
 MICROCYCLE DIIS UPDATE:                   40                    5
   41   0.0000001778015  -0.0541467920099     1.7     2.5
   42   0.0000003639326  -0.0541467564195     1.9     2.5
   43   0.0000013372374  -0.0541468251839     1.8     2.5
   44   0.0000053697354  -0.0541466248852     1.8     2.5
   45   0.0000226773845  -0.0541472757954     1.8     2.5
 MICROCYCLE DIIS UPDATE:                   45                    5
   46   0.0000000280916  -0.0541467753612     1.9     2.5
 -----------------------------------------------------------------
 Iterations converged
 CCSD correlation energy / hartree =        -0.054146775361214
 CCSD total energy / hartree       =      -100.097628821788817

 Singles contributions

 Doubles contributions
     6a   (alpha)     6a   (beta ) ---     5a   (alpha)     5a   (beta )       -0.1165506258
     6a   (alpha)     7a   (beta ) ---     5a   (alpha)     4a   (beta )       -0.0284847247
     7a   (alpha)     6a   (beta ) ---     4a   (alpha)     5a   (beta )       -0.0284847247
     7a   (alpha)     7a   (beta ) ---     4a   (alpha)     4a   (beta )       -0.0236833109
 Ground state specification:
 exp(T)|Ref>~(1+T)|Ref>
 ------- a(p)+/a(q) strings ----------

 singles norm

 doubles norm

 Reference string
  0.99327639907854681      :(1a)+ (2a)+ (3a)+ (4a)+ (5a)+ (1b)+ (2b)+ (3b)+ (4b)+ (5b)+ |0>

 Singles strings

 Doubles strings
 -0.11576698593966964      :(6a)+ (6b)+ (5b)  (5a)  (1a)+ (2a)+ (3a)+ (4a)+ (5a)+ (1b)+ (2b)+ (3b)+ (4b)+ (5b)+ |0>
 -------------------------------------

 Parallel integral file used       3 records with       0 large values


 Task  times  cpu:       84.3s     wall:      117.5s


                                NWChem Input Module
                                -------------------


 Summary of allocated global arrays
-----------------------------------
  No active global arrays


MA_summarize_allocated_blocks: starting scan ...
MA_summarize_allocated_blocks: scan completed: 0 heap blocks, 0 stack blocks
MA usage statistics:

	allocation statistics:
					      heap	     stack
					      ----	     -----
	current number of blocks	         0	         0
	maximum number of blocks	        18	        42
	current total bytes		         0	         0
	maximum total bytes		   9520896	  26465464
	maximum total K-bytes		      9521	     26466
	maximum total M-bytes		        10	        27


                                     CITATION
                                     --------
                Please cite the following reference when publishing
                           results obtained with NWChem:

          E. Apra, E. J. Bylaska, W. A. de Jong, N. Govind, K. Kowalski,
       T. P. Straatsma, M. Valiev, H. J. J. van Dam, Y. Alexeev, J. Anchell,
       V. Anisimov, F. W. Aquino, R. Atta-Fynn, J. Autschbach, N. P. Bauman,
     J. C. Becca, D. E. Bernholdt, K. Bhaskaran-Nair, S. Bogatko, P. Borowski,
         J. Boschen, J. Brabec, A. Bruner, E. Cauet, Y. Chen, G. N. Chuev,
      C. J. Cramer, J. Daily, M. J. O. Deegan, T. H. Dunning Jr., M. Dupuis,
   K. G. Dyall, G. I. Fann, S. A. Fischer, A. Fonari, H. Fruchtl, L. Gagliardi,
      J. Garza, N. Gawande, S. Ghosh, K. Glaesemann, A. W. Gotz, J. Hammond,
       V. Helms, E. D. Hermes, K. Hirao, S. Hirata, M. Jacquelin, L. Jensen,
   B. G. Johnson, H. Jonsson, R. A. Kendall, M. Klemm, R. Kobayashi, V. Konkov,
      S. Krishnamoorthy, M. Krishnan, Z. Lin, R. D. Lins, R. J. Littlefield,
      A. J. Logsdail, K. Lopata, W. Ma, A. V. Marenich, J. Martin del Campo,
   D. Mejia-Rodriguez, J. E. Moore, J. M. Mullin, T. Nakajima, D. R. Nascimento,
    J. A. Nichols, P. J. Nichols, J. Nieplocha, A. Otero-de-la-Roza, B. Palmer,
    A. Panyala, T. Pirojsirikul, B. Peng, R. Peverati, J. Pittner, L. Pollack,
   R. M. Richard, P. Sadayappan, G. C. Schatz, W. A. Shelton, D. W. Silverstein,
   D. M. A. Smith, T. A. Soares, D. Song, M. Swart, H. L. Taylor, G. S. Thomas,
            V. Tipparaju, D. G. Truhlar, K. Tsemekhman, T. Van Voorhis,
      A. Vazquez-Mayagoitia, P. Verma, O. Villa, A. Vishnu, K. D. Vogiatzis,
        D. Wang, J. H. Weare, M. J. Williamson, T. L. Windus, K. Wolinski,
        A. T. Wong, Q. Wu, C. Yang, Q. Yu, M. Zacharias, Z. Zhang, Y. Zhao,
                                and R. J. Harrison
                        "NWChem: Past, present, and future
                         J. Chem. Phys. 152, 184102 (2020)
                               doi:10.1063/5.0004997

                                      AUTHORS
                                      -------
  E. Apra, E. J. Bylaska, N. Govind, K. Kowalski, M. Valiev, D. Mejia-Rodriguez,
       A. Kunitsa, N. P. Bauman, A. Panyala, W. A. de Jong, T. P. Straatsma,
        H. J. J. van Dam, D. Wang, T. L. Windus, J. Hammond, J. Autschbach,
    K. Bhaskaran-Nair, J. Brabec, K. Lopata, S. A. Fischer, S. Krishnamoorthy,
     M. Jacquelin, W. Ma, M. Klemm, O. Villa, Y. Chen, V. Anisimov, F. Aquino,
    S. Hirata, M. T. Hackler, Eric Hermes, L. Jensen, J. E. Moore, J. C. Becca,
      V. Konjkov, T. Risthaus, M. Malagoli, A. Marenich, A. Otero-de-la-Roza,
        J. Mullin, P. Nichols, R. Peverati, J. Pittner, Y. Zhao, P.-D. Fan,
        A. Fonari, M. J. Williamson, R. J. Harrison, J. R. Rehr, M. Dupuis,
     D. Silverstein, D. M. A. Smith, J. Nieplocha, V. Tipparaju, M. Krishnan,
     B. E. Van Kuiken, A. Vazquez-Mayagoitia, M. Swart, Q. Wu, T. Van Voorhis,
     A. A. Auer, M. Nooijen, L. D. Crosby, E. Brown, G. Cisneros, G. I. Fann,
   H. Fruchtl, J. Garza, K. Hirao, R. A. Kendall, J. A. Nichols, K. Tsemekhman,
    K. Wolinski, J. Anchell, D. E. Bernholdt, P. Borowski, T. Clark, D. Clerc,
   H. Dachsel, M. J. O. Deegan, K. Dyall, D. Elwood, E. Glendening, M. Gutowski,
   A. C. Hess, J. Jaffe, B. G. Johnson, J. Ju, R. Kobayashi, R. Kutteh, Z. Lin,
   R. Littlefield, X. Long, B. Meng, T. Nakajima, S. Niu, L. Pollack, M. Rosing,
   K. Glaesemann, G. Sandrone, M. Stave, H. Taylor, G. Thomas, J. H. van Lenthe,
                               A. T. Wong, Z. Zhang.

 Total times  cpu:       86.1s     wall:      120.7s
