 argument  1 = input.nw
  NWChem w/ OpenMP: maximum threads =    1



============================== echo of input deck ==============================
 echo
 start HF
 title "HF"

 memory total 24 gb

 geometry units bohr
 symmetry c1
        F  0.00000000  0.00000000  0.00000000
        H  0.00000000  2.0097  0.00000000
 end

 basis spherical
   * library cc-pVTZ
 end

 mcscf
   active  8
   actelec 10
   multiplicity 1
   maxiter 40
   vectors input HF.mos
   vectors output HF.mos
 end

 task mcscf

 scf
   vectors input HF.mos
   vectors output HF-trash.mos
   noscf
 end

 tce
   2eorb
   2emet 13
   ccsd
   maxiter 500
 end

 set tce:print_integrals T
 set tce:qorb 8
 set tce:qela 5
 set tce:qelb 5

# set tce:qducc T
# set tce:nactv 3
# set tce:nonhf T
# set tce:ducc_model 3

 set tce:printtol 0.02

 task tce
================================================================================


                                         
                                         


             Northwest Computational Chemistry Package (NWChem) 7.0.1
             --------------------------------------------------------


                    Environmental Molecular Sciences Laboratory
                       Pacific Northwest National Laboratory
                                Richland, WA 99352

                              Copyright (c) 1994-2020
                       Pacific Northwest National Laboratory
                            Battelle Memorial Institute

             NWChem is an open-source computational chemistry package
                        distributed under the terms of the
                      Educational Community License (ECL) 2.0
             A copy of the license is included with this distribution
                              in the LICENSE.TXT file

                                  ACKNOWLEDGMENT
                                  --------------

            This software and its documentation were developed at the
            EMSL at Pacific Northwest National Laboratory, a multiprogram
            national laboratory, operated for the U.S. Department of Energy
            by Battelle under Contract Number DE-AC05-76RL01830. Support
            for this work was provided by the Department of Energy Office
            of Biological and Environmental Research, Office of Basic
            Energy Sciences, and the Office of Advanced Scientific Computing.


           Job information
           ---------------

    hostname        = WE46210
    program         = /home/baum612/code/nwchem/bin/LINUX64/nwchem
    date            = Thu Apr 25 13:31:46 2024

    compiled        = Mon_Apr_01_12:20:50_2024
    source          = /home/baum612/code/nwchem
    nwchem branch   = 7.0.0
    nwchem revision = nwchem_on_git-4191-g39d87d64de
    ga revision     = 5.8.1
    use scalapack   = F
    input           = input.nw
    prefix          = HF.
    data base       = ./HF.db
    status          = startup
    nproc           =        1
    time left       =     -1s



           Memory information
           ------------------

    heap     =  805306366 doubles =   6144.0 Mbytes
    stack    =  805306363 doubles =   6144.0 Mbytes
    global   = 1610612736 doubles =  12288.0 Mbytes (distinct from heap & stack)
    total    = 3221225465 doubles =  24576.0 Mbytes
    verify   = yes
    hardfail = no 


           Directory information
           ---------------------

  0 permanent = .
  0 scratch   = .




                                NWChem Input Module
                                -------------------


                                        HF
                                        --
 Turning off AUTOSYM since
 SYMMETRY directive was detected!


          ------
          auto-z
          ------
  no constraints, skipping    0.0000000000000000     
  no constraints, skipping    0.0000000000000000     


                             Geometry "geometry" -> ""
                             -------------------------

 Output coordinates in a.u. (scale by  1.000000000 to convert to a.u.)

  No.       Tag          Charge          X              Y              Z
 ---- ---------------- ---------- -------------- -------------- --------------
    1 F                    9.0000     0.00000000    -0.20097000     0.00000000
    2 H                    1.0000     0.00000000     1.80873000     0.00000000

      Atomic Mass 
      ----------- 

      F                 18.998400
      H                  1.007825


 Effective nuclear repulsion energy (a.u.)       4.4782803403

            Nuclear Dipole moment (a.u.) 
            ----------------------------
        X                 Y               Z
 ---------------- ---------------- ----------------
     0.0000000000     0.0000000000     0.0000000000



                                Z-matrix (autoz)
                                -------- 

 Units are Angstrom for bonds and degrees for angles

      Type          Name      I     J     K     L     M      Value
      ----------- --------  ----- ----- ----- ----- ----- ----------
    1 Stretch                  1     2                       1.06349


            XYZ format geometry
            -------------------
     2
 geometry
 F                     0.00000000    -0.10634875     0.00000000
 H                     0.00000000     0.95713877     0.00000000



 Summary of "ao basis" -> "" (spherical)
 ------------------------------------------------------------------------------
       Tag                 Description            Shells   Functions and Types
 ---------------- ------------------------------  ------  ---------------------
 *                          cc-pVTZ                   on all atoms 


                      Basis "ao basis" -> "ao basis" (spherical)
                      -----
  F (Fluorine)
  ------------
            Exponent  Coefficients 
       -------------- ---------------------------------------------------------
  1 S  1.95000000E+04  0.000507
  1 S  2.92300000E+03  0.003923
  1 S  6.64500000E+02  0.020200
  1 S  1.87500000E+02  0.079010
  1 S  6.06200000E+01  0.230439
  1 S  2.14200000E+01  0.432872
  1 S  7.95000000E+00  0.349964
  1 S  8.81500000E-01 -0.007892

  2 S  1.95000000E+04 -0.000117
  2 S  2.92300000E+03 -0.000912
  2 S  6.64500000E+02 -0.004717
  2 S  1.87500000E+02 -0.019086
  2 S  6.06200000E+01 -0.059655
  2 S  2.14200000E+01 -0.140010
  2 S  7.95000000E+00 -0.176782
  2 S  8.81500000E-01  0.605043

  3 S  2.25700000E+00  1.000000

  4 S  3.04100000E-01  1.000000

  5 P  4.38800000E+01  0.016665
  5 P  9.92600000E+00  0.104472
  5 P  2.93000000E+00  0.317260

  6 P  9.13200000E-01  1.000000

  7 P  2.67200000E-01  1.000000

  8 D  3.10700000E+00  1.000000

  9 D  8.55000000E-01  1.000000

 10 F  1.91700000E+00  1.000000

  H (Hydrogen)
  ------------
            Exponent  Coefficients 
       -------------- ---------------------------------------------------------
  1 S  3.38700000E+01  0.006068
  1 S  5.09500000E+00  0.045308
  1 S  1.15900000E+00  0.202822

  2 S  3.25800000E-01  1.000000

  3 S  1.02700000E-01  1.000000

  4 P  1.40700000E+00  1.000000

  5 P  3.88000000E-01  1.000000

  6 D  1.05700000E+00  1.000000



 Summary of "ao basis" -> "ao basis" (spherical)
 ------------------------------------------------------------------------------
       Tag                 Description            Shells   Functions and Types
 ---------------- ------------------------------  ------  ---------------------
 F                          cc-pVTZ                 10       30   4s3p2d1f
 H                          cc-pVTZ                  6       14   3s2p1d



                            NWChem Direct MCSCF Module
                            --------------------------


                                        HF


     -----------------------------------
       Basis functions:             44
       Inactive shells:              0
       Active shells:                8
       Active electrons:            10
       Symmetry:                    a       
       Multiplicity:                 1
       Orbital rotations:          288
     -----------------------------------

     -----------------------------------
       E2 extrapolation:             F
       Conjugacy:                    T
       Micro CI relax:               T
       Canonical orbitals:           T
       Maximum iterations:          40
       Converge threshold:    1.00E-04
       Conjugacy resets:            20
       Initial levelshift:        0.10
     -----------------------------------

 Loading old vectors from job with title :

HF


   input molecular orbitals = ./HF.mos
  output molecular orbtials = ./HF.mos

       No. of determinants:          3136


  Starting Orbital Energies
   -26.291783    -1.565713    -0.733091    -0.638723    -0.638723    -0.034038
    -0.007918    -0.003639     0.375602     0.807294     0.807294     1.008735
     1.008735     1.131539     1.657129     2.243271     2.243271     2.429443
     2.429443     2.607872     3.472941     3.472941     3.846009     3.846009
     4.033659     4.116023     4.116023     4.558695     5.241957     5.241957
     6.143667     7.415239     7.415239     7.483627     7.483627     7.971237
     8.005998     8.005998     8.893832     8.893832     9.161471     9.245210
     9.245210    11.016198

  Orbital Symmetry Irreps
a    a    a    a    a    a    a    a    a    a    a    a    a    a    a   
a    a    a    a    a    a    a    a    a    a    a    a    a    a    a   
a    a    a    a    a    a    a    a    a    a    a    a    a    a   

 Integral file          = ./HF.aoints.0
 Record size in doubles =  65536        No. of integs per rec  =  43688
 Max. records in memory =     18        Max. records in file   = 250981
 No. of bits per label  =      8        No. of bits per value  =     64


 #quartets = 9.316D+03 #integrals = 1.251D+05 #direct =  0.0% #cached =100.0%




          %%%%% MacroIteration   1 %%%%%


          Number of sigma calls:       20
                       o<<<<< (aa):             0.00
                       o<<<<< (bb):             0.00
                       o<<<<< (ab):             0.05
                       o<<<<< (total)           0.06
                       o<<<<< (aa) ff           0.00
                       o<<<<< (aa) gop          0.00
                       o<<<<< (aa) dot          0.00
                       o<<<<< (ab) str          0.00
                       o<<<<< (ab) gath         0.00
                       o<<<<< (ab) dotab        0.00
                       o<<<<< (ab) scat         0.00
                       o<<<<< (ab) sync         0.00
                       o<<<<< Density           0.01
                       o<<<<< Density one       0.00
                       o<<<<< Density two       0.00
                       o<<<<< Density ab        0.01
                       o<<<<< Spin adapt        0.12
                       o<<<<< Symm adapt        0.00

                       o<<<<< (ab) max sync:      0.00

           >>>| Valence CI:           -104.567912281665
           >>>| MCSCF energy:         -100.089631941315
           >>>| Gradient norm:          0.856798329D-02
     --- Warning:   48 Hessian diagonals < 0.05 ---

                              ----- Line search ------

        step       energy         lsg     num-lsg   num-lsh   lsrat    time
      ------- ---------------- --------- --------- --------- ------- --------
       0.0000    -100.08963194 -6.43D-06  0.00D+00  0.00D+00 0.0D+00      0.4

          Number of sigma calls:       17
                       o<<<<< (aa):             0.00
                       o<<<<< (bb):             0.00
                       o<<<<< (ab):             0.05
                       o<<<<< (total)           0.06
                       o<<<<< (aa) ff           0.00
                       o<<<<< (aa) gop          0.00
                       o<<<<< (aa) dot          0.00
                       o<<<<< (ab) str          0.00
                       o<<<<< (ab) gath         0.00
                       o<<<<< (ab) dotab        0.00
                       o<<<<< (ab) scat         0.00
                       o<<<<< (ab) sync         0.00
                       o<<<<< Density           0.00
                       o<<<<< Density one       0.00
                       o<<<<< Density two       0.00
                       o<<<<< Density ab        0.00
                       o<<<<< Spin adapt        0.14
                       o<<<<< Symm adapt        0.00

                       o<<<<< (ab) max sync:      0.00
       1.0000    -100.08963546 -6.03D-07 -6.04D-07  5.83D-06 9.4D-02      0.7
     --- Orbitals canonicalized ---



          %%%%% MacroIteration   2 %%%%%


          Number of sigma calls:       15
                       o<<<<< (aa):             0.00
                       o<<<<< (bb):             0.00
                       o<<<<< (ab):             0.04
                       o<<<<< (total)           0.04
                       o<<<<< (aa) ff           0.00
                       o<<<<< (aa) gop          0.00
                       o<<<<< (aa) dot          0.00
                       o<<<<< (ab) str          0.00
                       o<<<<< (ab) gath         0.00
                       o<<<<< (ab) dotab        0.00
                       o<<<<< (ab) scat         0.00
                       o<<<<< (ab) sync         0.00
                       o<<<<< Density           0.01
                       o<<<<< Density one       0.00
                       o<<<<< Density two       0.00
                       o<<<<< Density ab        0.01
                       o<<<<< Spin adapt        0.10
                       o<<<<< Symm adapt        0.00

                       o<<<<< (ab) max sync:      0.00

           >>>| Valence CI:           -104.567915798148
           >>>| MCSCF energy:         -100.089635457798
           >>>| Gradient norm:          0.162831244D-02
     --- Warning:   48 Hessian diagonals < 0.05 ---
     --- Conjugacy reset ---

                              ----- Line search ------

        step       energy         lsg     num-lsg   num-lsh   lsrat    time
      ------- ---------------- --------- --------- --------- ------- --------
       0.0000    -100.08963546 -2.38D-07  0.00D+00  0.00D+00 0.0D+00      0.9

          Number of sigma calls:       13
                       o<<<<< (aa):             0.00
                       o<<<<< (bb):             0.00
                       o<<<<< (ab):             0.02
                       o<<<<< (total)           0.02
                       o<<<<< (aa) ff           0.00
                       o<<<<< (aa) gop          0.00
                       o<<<<< (aa) dot          0.00
                       o<<<<< (ab) str          0.00
                       o<<<<< (ab) gath         0.00
                       o<<<<< (ab) dotab        0.00
                       o<<<<< (ab) scat         0.00
                       o<<<<< (ab) sync         0.00
                       o<<<<< Density           0.00
                       o<<<<< Density one       0.00
                       o<<<<< Density two       0.00
                       o<<<<< Density ab        0.00
                       o<<<<< Spin adapt        0.05
                       o<<<<< Symm adapt        0.00

                       o<<<<< (ab) max sync:      0.00
       1.0000    -100.08963562 -9.01D-08 -9.01D-08  1.47D-07 3.8D-01      1.1

          Number of sigma calls:       13
                       o<<<<< (aa):             0.00
                       o<<<<< (bb):             0.00
                       o<<<<< (ab):             0.05
                       o<<<<< (total)           0.05
                       o<<<<< (aa) ff           0.00
                       o<<<<< (aa) gop          0.00
                       o<<<<< (aa) dot          0.00
                       o<<<<< (ab) str          0.00
                       o<<<<< (ab) gath         0.00
                       o<<<<< (ab) dotab        0.00
                       o<<<<< (ab) scat         0.00
                       o<<<<< (ab) sync         0.00
                       o<<<<< Density           0.00
                       o<<<<< Density one       0.00
                       o<<<<< Density two       0.00
                       o<<<<< Density ab        0.00
                       o<<<<< Spin adapt        0.11
                       o<<<<< Symm adapt        0.00

                       o<<<<< (ab) max sync:      0.00
       1.6110    -100.08963565  1.12D-10  1.05D-10  1.48D-07 4.7D-04      1.3



          %%%%% MacroIteration   3 %%%%%


          Number of sigma calls:        1
                       o<<<<< (aa):             0.00
                       o<<<<< (bb):             0.00
                       o<<<<< (ab):             0.00
                       o<<<<< (total)           0.00
                       o<<<<< (aa) ff           0.00
                       o<<<<< (aa) gop          0.00
                       o<<<<< (aa) dot          0.00
                       o<<<<< (ab) str          0.00
                       o<<<<< (ab) gath         0.00
                       o<<<<< (ab) dotab        0.00
                       o<<<<< (ab) scat         0.00
                       o<<<<< (ab) sync         0.00
                       o<<<<< Density           0.01
                       o<<<<< Density one       0.00
                       o<<<<< Density two       0.00
                       o<<<<< Density ab        0.01
                       o<<<<< Spin adapt        0.00
                       o<<<<< Symm adapt        0.00

                       o<<<<< (ab) max sync:      0.00

           >>>| Valence CI:           -104.567915989462
           >>>| MCSCF energy:         -100.089635649113
           >>>| Gradient norm:          0.224273239D-03
     --- Warning:   48 Hessian diagonals < 0.05 ---

                              ----- Line search ------

        step       energy         lsg     num-lsg   num-lsh   lsrat    time
      ------- ---------------- --------- --------- --------- ------- --------
       0.0000    -100.08963565 -6.93D-09  0.00D+00  0.00D+00 0.0D+00      1.3

          Number of sigma calls:       10
                       o<<<<< (aa):             0.00
                       o<<<<< (bb):             0.00
                       o<<<<< (ab):             0.03
                       o<<<<< (total)           0.03
                       o<<<<< (aa) ff           0.00
                       o<<<<< (aa) gop          0.00
                       o<<<<< (aa) dot          0.00
                       o<<<<< (ab) str          0.00
                       o<<<<< (ab) gath         0.00
                       o<<<<< (ab) dotab        0.00
                       o<<<<< (ab) scat         0.00
                       o<<<<< (ab) sync         0.00
                       o<<<<< Density           0.00
                       o<<<<< Density one       0.00
                       o<<<<< Density two       0.00
                       o<<<<< Density ab        0.00
                       o<<<<< Spin adapt        0.09
                       o<<<<< Symm adapt        0.00

                       o<<<<< (ab) max sync:      0.00
       1.0000    -100.08963565 -1.83D-09 -1.83D-09  5.10D-09 2.6D-01      1.5

          Number of sigma calls:        9
                       o<<<<< (aa):             0.00
                       o<<<<< (bb):             0.00
                       o<<<<< (ab):             0.02
                       o<<<<< (total)           0.03
                       o<<<<< (aa) ff           0.00
                       o<<<<< (aa) gop          0.00
                       o<<<<< (aa) dot          0.00
                       o<<<<< (ab) str          0.00
                       o<<<<< (ab) gath         0.00
                       o<<<<< (ab) dotab        0.00
                       o<<<<< (ab) scat         0.00
                       o<<<<< (ab) sync         0.00
                       o<<<<< Density           0.00
                       o<<<<< Density one       0.00
                       o<<<<< Density two       0.00
                       o<<<<< Density ab        0.00
                       o<<<<< Spin adapt        0.07
                       o<<<<< Symm adapt        0.00

                       o<<<<< (ab) max sync:      0.00
       1.3580    -100.08963565  9.58D-14  2.57D-14  5.10D-09 1.4D-05      1.6



          %%%%% MacroIteration   4 %%%%%


          Number of sigma calls:        1
                       o<<<<< (aa):             0.00
                       o<<<<< (bb):             0.00
                       o<<<<< (ab):             0.00
                       o<<<<< (total)           0.00
                       o<<<<< (aa) ff           0.00
                       o<<<<< (aa) gop          0.00
                       o<<<<< (aa) dot          0.00
                       o<<<<< (ab) str          0.00
                       o<<<<< (ab) gath         0.00
                       o<<<<< (ab) dotab        0.00
                       o<<<<< (ab) scat         0.00
                       o<<<<< (ab) sync         0.00
                       o<<<<< Density           0.00
                       o<<<<< Density one       0.00
                       o<<<<< Density two       0.00
                       o<<<<< Density ab        0.00
                       o<<<<< Spin adapt        0.00
                       o<<<<< Symm adapt        0.00

                       o<<<<< (ab) max sync:      0.00

           >>>| Valence CI:           -104.567915994169
           >>>| MCSCF energy:         -100.089635653820
           >>>| Gradient norm:          0.364297052D-04




     ==============================
            MCSCF Converged
     ==============================



          Canonical Eigenvalues

              1      
    1  -26.2919
    2   -1.5648
    3   -0.7315
    4   -0.6386
    5   -0.6386
    6   -0.0344
    7   -0.0079
    8   -0.0036
    9    0.3759
   10    0.8060
   11    0.8060
   12    1.0092
   13    1.0092
   14    1.1300
   15    1.6610
   16    2.2438
   17    2.2438
   18    2.4262
   19    2.4262
   20    2.6065
   21    3.4711
   22    3.4711
   23    3.8451
   24    3.8451
   25    4.0296
   26    4.1108
   27    4.1108
   28    4.5484
   29    5.2388
   30    5.2388
   31    6.1471
   32    7.4154
   33    7.4154
   34    7.4811
   35    7.4811
   36    7.9679
   37    7.9947
   38    7.9947
   39    8.8935
   40    8.8935
   41    9.1656
   42    9.2420
   43    9.2420
   44   10.9819


          Converged CI vector

   Index           Coefficient          Config. Occupation
         1          0.98700444          1  2  3  4  5  1  2  3  4  5
         4          0.04466948          1  2  3  4  5  1  2  4  5  6
       169          0.04466948          1  2  4  5  6  1  2  3  4  5
       172         -0.11684171          1  2  4  5  6  1  2  4  5  6
       173          0.02864356          1  2  4  5  6  1  3  4  5  6
       178          0.02503484          1  2  4  5  6  1  3  4  5  7
       228          0.02864356          1  3  4  5  6  1  2  4  5  6
       229         -0.02254226          1  3  4  5  6  1  3  4  5  6
       508          0.02503484          1  3  4  5  7  1  2  4  5  6

          Number of sigma calls:        1
                       o<<<<< (aa):             0.00
                       o<<<<< (bb):             0.00
                       o<<<<< (ab):             0.00
                       o<<<<< (total)           0.00
                       o<<<<< (aa) ff           0.00
                       o<<<<< (aa) gop          0.00
                       o<<<<< (aa) dot          0.00
                       o<<<<< (ab) str          0.00
                       o<<<<< (ab) gath         0.00
                       o<<<<< (ab) dotab        0.00
                       o<<<<< (ab) scat         0.00
                       o<<<<< (ab) sync         0.00
                       o<<<<< Density           0.00
                       o<<<<< Density one       0.00
                       o<<<<< Density two       0.00
                       o<<<<< Density ab        0.00
                       o<<<<< Spin adapt        0.00
                       o<<<<< Symm adapt        0.00

                       o<<<<< (ab) max sync:      0.00



          Natural orbital occupation numbers

              1      
    1    2.0000
    2    1.9992
    3    1.9992
    4    1.9946
    5    1.9634
    6    0.0365
    7    0.0050
    8    0.0021


          Number of sigma calls:       20
                       o<<<<< (aa):             0.00
                       o<<<<< (bb):             0.00
                       o<<<<< (ab):             0.04
                       o<<<<< (total)           0.05
                       o<<<<< (aa) ff           0.00
                       o<<<<< (aa) gop          0.00
                       o<<<<< (aa) dot          0.00
                       o<<<<< (ab) str          0.00
                       o<<<<< (ab) gath         0.00
                       o<<<<< (ab) dotab        0.00
                       o<<<<< (ab) scat         0.00
                       o<<<<< (ab) sync         0.00
                       o<<<<< Density           0.00
                       o<<<<< Density one       0.00
                       o<<<<< Density two       0.00
                       o<<<<< Density ab        0.00
                       o<<<<< Spin adapt        0.10
                       o<<<<< Symm adapt        0.00

                       o<<<<< (ab) max sync:      0.00


       Final MCSCF results 
       ------------------- 

       Total MCSCF energy =   -100.089635653820
            Gradient norm =      3.6D-05

    CPU time for solution =      1.9s
   Wall time for solution =      3.1s



                        Analysis of MCSCF natural orbitals
                        ----------------------------------

 Vector    1  Occ=1.999977D+00  E=-2.629194D+01  Symmetry=a
              MO Center=  8.3D-15, -1.1D-01,  2.9D-14, r^2= 1.2D-02
   Bfn.  Coefficient  Atom+Function         Bfn.  Coefficient  Atom+Function  
  ----- ------------  ---------------      ----- ------------  ---------------
     1      0.975762  1 F  s          

 Vector    2  Occ=1.999228D+00  E=-1.564782D+00  Symmetry=a
              MO Center=  3.4D-15, -8.8D-02,  3.6D-13, r^2= 4.6D-01
   Bfn.  Coefficient  Atom+Function         Bfn.  Coefficient  Atom+Function  
  ----- ------------  ---------------      ----- ------------  ---------------
    10      0.468384  1 F  pz                 7      0.384057  1 F  pz         
    13      0.356332  1 F  pz         

 Vector    3  Occ=1.999228D+00  E=-7.314859D-01  Symmetry=a
              MO Center= -1.3D-13, -8.8D-02,  1.2D-15, r^2= 4.6D-01
   Bfn.  Coefficient  Atom+Function         Bfn.  Coefficient  Atom+Function  
  ----- ------------  ---------------      ----- ------------  ---------------
     8      0.468384  1 F  px                 5      0.384057  1 F  px         
    11      0.356332  1 F  px         

 Vector    4  Occ=1.994630D+00  E=-6.385521D-01  Symmetry=a
              MO Center=  1.8D-13, -1.8D-01, -3.1D-13, r^2= 3.5D-01
   Bfn.  Coefficient  Atom+Function         Bfn.  Coefficient  Atom+Function  
  ----- ------------  ---------------      ----- ------------  ---------------
     2      0.563915  1 F  s                  4      0.381477  1 F  s          
     3      0.166115  1 F  s          

 Vector    5  Occ=1.963434D+00  E=-6.385521D-01  Symmetry=a
              MO Center= -8.3D-14,  2.5D-01, -6.7D-14, r^2= 6.1D-01
   Bfn.  Coefficient  Atom+Function         Bfn.  Coefficient  Atom+Function  
  ----- ------------  ---------------      ----- ------------  ---------------
     9      0.383237  1 F  py                 6      0.311550  1 F  py         
    32      0.251197  2 H  s                 12      0.239534  1 F  py         
    31      0.167206  2 H  s          

 Vector    6  Occ=3.646840D-02  E=-3.437769D-02  Symmetry=a
              MO Center= -1.8D-15,  5.6D-01, -4.6D-16, r^2= 6.2D-01
   Bfn.  Coefficient  Atom+Function         Bfn.  Coefficient  Atom+Function  
  ----- ------------  ---------------      ----- ------------  ---------------
    32      0.645694  2 H  s                  6     -0.451081  1 F  py         
     9     -0.451997  1 F  py                31      0.317171  2 H  s          
     4     -0.269532  1 F  s                  2     -0.168340  1 F  s          

 Vector    7  Occ=4.965991D-03  E=-7.899750D-03  Symmetry=a
              MO Center=  1.6D-14, -3.5D-01, -1.7D-14, r^2= 7.4D-01
   Bfn.  Coefficient  Atom+Function         Bfn.  Coefficient  Atom+Function  
  ----- ------------  ---------------      ----- ------------  ---------------
     4      1.268652  1 F  s                  3     -0.783042  1 F  s          
     2     -0.653626  1 F  s                 12     -0.268826  1 F  py         
     6      0.212114  1 F  py         

 Vector    8  Occ=2.069913D-03  E=-3.635849D-03  Symmetry=a
              MO Center= -5.3D-15, -1.7D-01, -4.4D-16, r^2= 4.6D-01
   Bfn.  Coefficient  Atom+Function         Bfn.  Coefficient  Atom+Function  
  ----- ------------  ---------------      ----- ------------  ---------------
    23      0.573672  1 F  d  2              18      0.353417  1 F  d  2       
    21      0.331206  1 F  d  0               6     -0.229080  1 F  py         
    16      0.204043  1 F  d  0              12      0.191561  1 F  py         

 Vector    9  Occ=0.000000D+00  E= 3.759467D-01  Symmetry=a
              MO Center=  3.1D-15,  1.3D+00,  3.1D-15, r^2= 3.4D+00
   Bfn.  Coefficient  Atom+Function         Bfn.  Coefficient  Atom+Function  
  ----- ------------  ---------------      ----- ------------  ---------------
    33      1.820763  2 H  s                  4     -1.116020  1 F  s          
    32     -0.667033  2 H  s                 12     -0.352197  1 F  py         
     2      0.333559  1 F  s                 38     -0.245697  2 H  py         
     1      0.151193  1 F  s          

 Vector   10  Occ=0.000000D+00  E= 8.060084D-01  Symmetry=a
              MO Center=  2.8D-15,  8.7D-01, -1.8D-17, r^2= 1.1D+00
   Bfn.  Coefficient  Atom+Function         Bfn.  Coefficient  Atom+Function  
  ----- ------------  ---------------      ----- ------------  ---------------
    37      0.990809  2 H  px                 8     -0.370347  1 F  px         
     5     -0.158537  1 F  px                11      0.151221  1 F  px         

 Vector   11  Occ=0.000000D+00  E= 8.060084D-01  Symmetry=a
              MO Center=  4.1D-17,  8.7D-01,  2.5D-15, r^2= 1.1D+00
   Bfn.  Coefficient  Atom+Function         Bfn.  Coefficient  Atom+Function  
  ----- ------------  ---------------      ----- ------------  ---------------
    39      0.990809  2 H  pz                10     -0.370347  1 F  pz         
     7     -0.158537  1 F  pz                13      0.151221  1 F  pz         

 Vector   12  Occ=0.000000D+00  E= 1.009232D+00  Symmetry=a
              MO Center= -3.4D-15, -1.4D-01,  6.5D-17, r^2= 1.6D+00
   Bfn.  Coefficient  Atom+Function         Bfn.  Coefficient  Atom+Function  
  ----- ------------  ---------------      ----- ------------  ---------------
    11      1.356489  1 F  px                37     -0.713882  2 H  px         
     8     -0.641017  1 F  px                 5     -0.202829  1 F  px         

 Vector   13  Occ=0.000000D+00  E= 1.009232D+00  Symmetry=a
              MO Center=  9.8D-17, -1.4D-01, -2.3D-15, r^2= 1.6D+00
   Bfn.  Coefficient  Atom+Function         Bfn.  Coefficient  Atom+Function  
  ----- ------------  ---------------      ----- ------------  ---------------
    13      1.356489  1 F  pz                39     -0.713882  2 H  pz         
    10     -0.641017  1 F  pz                 7     -0.202829  1 F  pz         

 Vector   14  Occ=0.000000D+00  E= 1.129992D+00  Symmetry=a
              MO Center=  2.2D-15,  9.9D-01,  2.7D-15, r^2= 1.5D+00
   Bfn.  Coefficient  Atom+Function         Bfn.  Coefficient  Atom+Function  
  ----- ------------  ---------------      ----- ------------  ---------------
    38      1.177584  2 H  py                32      0.651789  2 H  s          
    12     -0.638540  1 F  py                33     -0.528580  2 H  s          
     9      0.488846  1 F  py                 4      0.380480  1 F  s          
     2      0.222832  1 F  s          

 Vector   15  Occ=0.000000D+00  E= 1.661003D+00  Symmetry=a
              MO Center= -1.9D-16, -2.7D-01, -6.7D-16, r^2= 2.4D+00
   Bfn.  Coefficient  Atom+Function         Bfn.  Coefficient  Atom+Function  
  ----- ------------  ---------------      ----- ------------  ---------------
     4      4.944600  1 F  s                 32     -4.511193  2 H  s          
    12      3.359767  1 F  py                38      3.046302  2 H  py         
    23     -0.766192  1 F  d  2               2     -0.651757  1 F  s          
    21     -0.442354  1 F  d  0              33     -0.365946  2 H  s          
     1     -0.272950  1 F  s                  3     -0.251559  1 F  s          

 Vector   16  Occ=0.000000D+00  E= 2.243842D+00  Symmetry=a
              MO Center=  1.7D-15, -5.1D-02,  3.3D-15, r^2= 6.1D-01
   Bfn.  Coefficient  Atom+Function         Bfn.  Coefficient  Atom+Function  
  ----- ------------  ---------------      ----- ------------  ---------------
    22      0.970121  1 F  d  1              43      0.157544  2 H  d  1       

 Vector   17  Occ=0.000000D+00  E= 2.243842D+00  Symmetry=a
              MO Center=  1.8D-15, -5.1D-02,  3.4D-15, r^2= 6.1D-01
   Bfn.  Coefficient  Atom+Function         Bfn.  Coefficient  Atom+Function  
  ----- ------------  ---------------      ----- ------------  ---------------
    21      0.840155  1 F  d  0              23     -0.485051  1 F  d  2       

 Vector   18  Occ=0.000000D+00  E= 2.426226D+00  Symmetry=a
              MO Center=  2.3D-16,  1.5D-01,  2.8D-15, r^2= 8.2D-01
   Bfn.  Coefficient  Atom+Function         Bfn.  Coefficient  Atom+Function  
  ----- ------------  ---------------      ----- ------------  ---------------
    20      0.949584  1 F  d -1              39     -0.513276  2 H  pz         
    13      0.259228  1 F  pz                41     -0.197113  2 H  d -1       


 Wrote Lagrangian and 1- and 2-particle density matrices to ./HF.mcpdm


     Multipole analysis of the density
     ---------------------------------

     L   x y z        total        nuclear
     -   - - -        -----        -------
     0   0 0 0     -0.000000     10.000000

     1   1 0 0     -0.000000      0.000000
     1   0 1 0      0.786919      0.000000
     1   0 0 1     -0.000000      0.000000

     2   2 0 0     -4.215406      0.000000
     2   1 1 0     -0.000000      0.000000
     2   1 0 1     -0.000000      0.000000
     2   0 2 0     -2.349790      3.635005
     2   0 1 1     -0.000000      0.000000
     2   0 0 2     -4.215406      0.000000


  Mulliken analysis of the total density
  --------------------------------------

    Atom       Charge   Shell Charges
 -----------   ------   -------------------------------------------------------
    1 F    9     9.34   1.95  1.06  0.27  0.66  1.53  2.42  1.45  0.00  0.01  0.00
    2 H    1     0.66   0.20  0.34  0.04  0.01  0.05  0.01

    Mulliken analysis of the active space density
    ---------------------------------------------

    Atom       Charge   Shell Charges
 -----------   ------   -------------------------------------------------------
    1 F    9     9.34   1.95  1.06  0.27  0.66  1.53  2.42  1.45  0.00  0.01  0.00
    2 H    1     0.66   0.20  0.34  0.04  0.01  0.05  0.01

 Parallel integral file used       3 records with       0 large values


 Task  times  cpu:        1.9s     wall:        3.2s


                                NWChem Input Module
                                -------------------


                                 NWChem SCF Module
                                 -----------------


                                        HF



  ao basis        = "ao basis"
  functions       =    44
  atoms           =     2
  closed shells   =     5
  open shells     =     0
  charge          =   0.00
  wavefunction    = RHF 
  input vectors   = ./HF.mos
  output vectors  = ./HF-trash.mos
  use symmetry    = F
  symmetry adapt  = F


 Summary of "ao basis" -> "ao basis" (spherical)
 ------------------------------------------------------------------------------
       Tag                 Description            Shells   Functions and Types
 ---------------- ------------------------------  ------  ---------------------
 F                          cc-pVTZ                 10       30   4s3p2d1f
 H                          cc-pVTZ                  6       14   3s2p1d



 Forming initial guess at       3.2s


 Loading old vectors from job with title :

HF


 Starting SCF solution at       3.2s



 ----------------------------------------------
         Quadratically convergent ROHF

 Convergence threshold     :          1.000E-04
 Maximum no. of iterations :           30
 Final Fock-matrix accuracy:          1.000E-07
 ----------------------------------------------


 Integral file          = ./HF.aoints.0
 Record size in doubles =  65536        No. of integs per rec  =  43688
 Max. records in memory =     18        Max. records in file   = 250991
 No. of bits per label  =      8        No. of bits per value  =     64


 #quartets = 9.316D+03 #integrals = 1.251D+05 #direct =  0.0% #cached =100.0%



       Final RHF  results 
       ------------------ 

         Total SCF energy =   -100.032839607648
      One-electron energy =   -149.373335387501
      Two-electron energy =     44.862215439503
 Nuclear repulsion energy =      4.478280340349

        Time for solution =      0.0s


             Final eigenvalues
             -----------------

              1      
    1  -26.2919
    2   -1.5648
    3   -0.7315
    4   -0.6386
    5   -0.6386
    6   -0.0344
    7   -0.0079
    8   -0.0036
    9    0.3759
   10    0.8060
   11    0.8060
   12    1.0092
   13    1.0092
   14    1.1300
   15    1.6610

                       ROHF Final Molecular Orbital Analysis
                       -------------------------------------

 Vector    2  Occ=2.000000D+00  E=-1.564782D+00
              MO Center=  3.4D-15, -8.8D-02,  3.6D-13, r^2= 4.6D-01
   Bfn.  Coefficient  Atom+Function         Bfn.  Coefficient  Atom+Function  
  ----- ------------  ---------------      ----- ------------  ---------------
    10      0.468384  1 F  pz                 7      0.384057  1 F  pz         
    13      0.356332  1 F  pz         

 Vector    3  Occ=2.000000D+00  E=-7.314859D-01
              MO Center= -1.3D-13, -8.8D-02,  1.2D-15, r^2= 4.6D-01
   Bfn.  Coefficient  Atom+Function         Bfn.  Coefficient  Atom+Function  
  ----- ------------  ---------------      ----- ------------  ---------------
     8      0.468384  1 F  px                 5      0.384057  1 F  px         
    11      0.356332  1 F  px         

 Vector    4  Occ=2.000000D+00  E=-6.385521D-01
              MO Center=  1.8D-13, -1.8D-01, -3.1D-13, r^2= 3.5D-01
   Bfn.  Coefficient  Atom+Function         Bfn.  Coefficient  Atom+Function  
  ----- ------------  ---------------      ----- ------------  ---------------
     2      0.563915  1 F  s                  4      0.381477  1 F  s          
     3      0.166115  1 F  s          

 Vector    5  Occ=2.000000D+00  E=-6.385521D-01
              MO Center= -8.3D-14,  2.5D-01, -6.7D-14, r^2= 6.1D-01
   Bfn.  Coefficient  Atom+Function         Bfn.  Coefficient  Atom+Function  
  ----- ------------  ---------------      ----- ------------  ---------------
     9      0.383237  1 F  py                 6      0.311550  1 F  py         
    32      0.251197  2 H  s                 12      0.239534  1 F  py         
    31      0.167206  2 H  s          

 Vector    6  Occ=0.000000D+00  E=-3.437769D-02
              MO Center= -1.8D-15,  5.6D-01, -4.6D-16, r^2= 6.2D-01
   Bfn.  Coefficient  Atom+Function         Bfn.  Coefficient  Atom+Function  
  ----- ------------  ---------------      ----- ------------  ---------------
    32      0.645694  2 H  s                  6     -0.451081  1 F  py         
     9     -0.451997  1 F  py                31      0.317171  2 H  s          
     4     -0.269532  1 F  s                  2     -0.168340  1 F  s          

 Vector    7  Occ=0.000000D+00  E=-7.899750D-03
              MO Center=  1.6D-14, -3.5D-01, -1.7D-14, r^2= 7.4D-01
   Bfn.  Coefficient  Atom+Function         Bfn.  Coefficient  Atom+Function  
  ----- ------------  ---------------      ----- ------------  ---------------
     4      1.268652  1 F  s                  3     -0.783042  1 F  s          
     2     -0.653626  1 F  s                 12     -0.268826  1 F  py         
     6      0.212114  1 F  py         

 Vector    8  Occ=0.000000D+00  E=-3.635849D-03
              MO Center= -5.3D-15, -1.7D-01, -4.4D-16, r^2= 4.6D-01
   Bfn.  Coefficient  Atom+Function         Bfn.  Coefficient  Atom+Function  
  ----- ------------  ---------------      ----- ------------  ---------------
    23      0.573672  1 F  d  2              18      0.353417  1 F  d  2       
    21      0.331206  1 F  d  0               6     -0.229080  1 F  py         
    16      0.204043  1 F  d  0              12      0.191561  1 F  py         

 Vector    9  Occ=0.000000D+00  E= 3.759467D-01
              MO Center=  3.1D-15,  1.3D+00,  3.1D-15, r^2= 3.4D+00
   Bfn.  Coefficient  Atom+Function         Bfn.  Coefficient  Atom+Function  
  ----- ------------  ---------------      ----- ------------  ---------------
    33      1.820763  2 H  s                  4     -1.116020  1 F  s          
    32     -0.667033  2 H  s                 12     -0.352197  1 F  py         
     2      0.333559  1 F  s                 38     -0.245697  2 H  py         
     1      0.151193  1 F  s          

 Vector   10  Occ=0.000000D+00  E= 8.060084D-01
              MO Center=  2.8D-15,  8.7D-01, -1.8D-17, r^2= 1.1D+00
   Bfn.  Coefficient  Atom+Function         Bfn.  Coefficient  Atom+Function  
  ----- ------------  ---------------      ----- ------------  ---------------
    37      0.990809  2 H  px                 8     -0.370347  1 F  px         
     5     -0.158537  1 F  px                11      0.151221  1 F  px         

 Vector   11  Occ=0.000000D+00  E= 8.060084D-01
              MO Center=  4.1D-17,  8.7D-01,  2.5D-15, r^2= 1.1D+00
   Bfn.  Coefficient  Atom+Function         Bfn.  Coefficient  Atom+Function  
  ----- ------------  ---------------      ----- ------------  ---------------
    39      0.990809  2 H  pz                10     -0.370347  1 F  pz         
     7     -0.158537  1 F  pz                13      0.151221  1 F  pz         

 Vector   12  Occ=0.000000D+00  E= 1.009232D+00
              MO Center= -3.4D-15, -1.4D-01,  6.5D-17, r^2= 1.6D+00
   Bfn.  Coefficient  Atom+Function         Bfn.  Coefficient  Atom+Function  
  ----- ------------  ---------------      ----- ------------  ---------------
    11      1.356489  1 F  px                37     -0.713882  2 H  px         
     8     -0.641017  1 F  px                 5     -0.202829  1 F  px         

 Vector   13  Occ=0.000000D+00  E= 1.009232D+00
              MO Center=  9.8D-17, -1.4D-01, -2.3D-15, r^2= 1.6D+00
   Bfn.  Coefficient  Atom+Function         Bfn.  Coefficient  Atom+Function  
  ----- ------------  ---------------      ----- ------------  ---------------
    13      1.356489  1 F  pz                39     -0.713882  2 H  pz         
    10     -0.641017  1 F  pz                 7     -0.202829  1 F  pz         

 Vector   14  Occ=0.000000D+00  E= 1.129992D+00
              MO Center=  2.2D-15,  9.9D-01,  2.7D-15, r^2= 1.5D+00
   Bfn.  Coefficient  Atom+Function         Bfn.  Coefficient  Atom+Function  
  ----- ------------  ---------------      ----- ------------  ---------------
    38      1.177584  2 H  py                32      0.651789  2 H  s          
    12     -0.638540  1 F  py                33     -0.528580  2 H  s          
     9      0.488846  1 F  py                 4      0.380480  1 F  s          
     2      0.222832  1 F  s          

 Vector   15  Occ=0.000000D+00  E= 1.661003D+00
              MO Center= -1.9D-16, -2.7D-01, -6.7D-16, r^2= 2.4D+00
   Bfn.  Coefficient  Atom+Function         Bfn.  Coefficient  Atom+Function  
  ----- ------------  ---------------      ----- ------------  ---------------
     4      4.944600  1 F  s                 32     -4.511193  2 H  s          
    12      3.359767  1 F  py                38      3.046302  2 H  py         
    23     -0.766192  1 F  d  2               2     -0.651757  1 F  s          
    21     -0.442354  1 F  d  0              33     -0.365946  2 H  s          
     1     -0.272950  1 F  s                  3     -0.251559  1 F  s          


 center of mass
 --------------
 x =   0.00000000 y =  -0.09973022 z =   0.00000000

 moments of inertia (a.u.)
 ------------------
           3.865444754887           0.000000000000           0.000000000000
           0.000000000000           0.000000000000           0.000000000000
           0.000000000000           0.000000000000           3.865444754887

  Mulliken analysis of the total density
  --------------------------------------

    Atom       Charge   Shell Charges
 -----------   ------   -------------------------------------------------------
    1 F    9     9.35   1.95  1.06  0.27  0.66  1.53  2.42  1.46  0.00  0.01  0.00
    2 H    1     0.65   0.20  0.33  0.04  0.01  0.05  0.01

       Multipole analysis of the density wrt the origin
       ------------------------------------------------

     L   x y z        total         open         nuclear
     -   - - -        -----         ----         -------
     0   0 0 0     -0.000000      0.000000     10.000000

     1   1 0 0      0.000000      0.000000      0.000000
     1   0 1 0      0.806817      0.000000      0.000000
     1   0 0 1     -0.000000      0.000000      0.000000

     2   2 0 0     -4.213135      0.000000      0.000000
     2   1 1 0     -0.000000      0.000000      0.000000
     2   1 0 1     -0.000000      0.000000      0.000000
     2   0 2 0     -2.310459      0.000000      3.635005
     2   0 1 1      0.000000      0.000000      0.000000
     2   0 0 2     -4.213135      0.000000      0.000000


 Parallel integral file used       3 records with       0 large values

 ------------------------------------
     Number of active orbitals      8
     Number of active alpha electrons      5
     Number of active beta electrons       5
 ------------------------------------
                   NWChem Extensible Many-Electron Theory Module
                   ---------------------------------------------

              ======================================================
                   This portion of the program was automatically
                  generated by a Tensor Contraction Engine (TCE).
                  The development of this portion of the program
                 and TCE was supported by US Department of Energy,
                Office of Science, Office of Basic Energy Science.
                      TCE is a product of Battelle and PNNL.
              Please cite: S.Hirata, J.Phys.Chem.A 107, 9887 (2003).
              ======================================================

                                        HF


            General Information
            -------------------
      Number of processors :     1
         Wavefunction type : Restricted Hartree-Fock
          No. of electrons :    10
           Alpha electrons :     5
            Beta electrons :     5
           No. of orbitals :    88
            Alpha orbitals :    44
             Beta orbitals :    44
        Alpha frozen cores :     0
         Beta frozen cores :     0
     Alpha frozen virtuals :    36
      Beta frozen virtuals :    36
         Spin multiplicity : singlet 
    Number of AO functions :    44
       Number of AO shells :    16
        Use of symmetry is : off
      Symmetry adaption is : off
         Schwarz screening : 0.10D-09

          Correlation Information
          -----------------------
          Calculation type : Coupled-cluster singles & doubles                           
   Perturbative correction : none                                                        
            Max iterations :      500
        Residual threshold : 0.10D-06
     T(0) DIIS level shift : 0.00D+00
     L(0) DIIS level shift : 0.00D+00
     T(1) DIIS level shift : 0.00D+00
     L(1) DIIS level shift : 0.00D+00
     T(R) DIIS level shift : 0.00D+00
     T(I) DIIS level shift : 0.00D+00
   CC-T/L Amplitude update :  5-th order DIIS
                I/O scheme : Global Array Library
        L-threshold :  0.10D-06
        EOM-threshold :  0.10D-06
 no EOMCCSD initial starts read in
 TCE RESTART OPTIONS
 READ_INT:   F
 WRITE_INT:  F
 READ_TA:    F
 WRITE_TA:   F
 READ_XA:    F
 WRITE_XA:   F
 READ_IN3:   F
 WRITE_IN3:  F
 SLICE:      F
 D4D5:       F
 quantumc:   T
 qrotation:  F
 pwtce:      F
 qducc:      F
 nacto:                         0
 nrotv:                         0
 nrot:                          0

            Memory Information
            ------------------
          Available GA space size is    1610610800 doubles
          Available MA space size is    1610610316 doubles

 Maximum block size supplied by input
 Maximum block size         1 doubles

 tile_dim =      1

 Block   Spin    Irrep     Size     Offset   Alpha
 -------------------------------------------------
   1    alpha     a      1 doubles       0       1
   2    alpha     a      1 doubles       1       2
   3    alpha     a      1 doubles       2       3
   4    alpha     a      1 doubles       3       4
   5    alpha     a      1 doubles       4       5
   6    beta      a      1 doubles       5       1
   7    beta      a      1 doubles       6       2
   8    beta      a      1 doubles       7       3
   9    beta      a      1 doubles       8       4
  10    beta      a      1 doubles       9       5
  11    alpha     a      1 doubles      10      11
  12    alpha     a      1 doubles      11      12
  13    alpha     a      1 doubles      12      13
  14    beta      a      1 doubles      13      11
  15    beta      a      1 doubles      14      12
  16    beta      a      1 doubles      15      13

 Global array virtual files algorithm will be used

 Parallel file system coherency ......... OK

 Integral file          = ./HF.aoints.0
 Record size in doubles =  65536        No. of integs per rec  =  43688
 Max. records in memory =     18        Max. records in file   = 250991
 No. of bits per label  =      8        No. of bits per value  =     64


 #quartets = 9.316D+03 #integrals = 1.251D+05 #direct =  0.0% #cached =100.0%


 Fock matrix recomputed
 1-e file size   =               64
 1-e file name   = ./HF.f1
 Cpu & wall time / sec            0.0            0.1
 4-electron integrals stored in orbital form

 v2    file size   =              666
 4-index algorithm nr.  13 is used
 imaxsize =       30
 imaxsize ichop =        0
 begin_one_electron_integrals
    1    1       -40.9138952627
    4    1         0.7663692081
    5    1         0.0164464690
    6    1        -0.1711339368
    7    1        -0.7422036283
    8    1         0.0632861982
    2    2        -8.4077249509
    3    3        -8.4077250145
    1    4         0.7663692081
    4    4        -9.3484677798
    5    4        -0.0556502307
    6    4         0.3647931267
    7    4         2.1971540663
    8    4        -0.1442256155
    1    5         0.0164464690
    4    5        -0.0556502307
    5    5        -7.6088546857
    6    5         2.4911188113
    7    5        -0.5582713317
    8    5         0.7343176037
    1    6        -0.1711339368
    4    6         0.3647931267
    5    6         2.4911188113
    6    6        -6.6633211878
    7    6        -0.0157652917
    8    6        -0.2134703651
    1    7        -0.7422036283
    4    7         2.1971540663
    5    7        -0.5582713317
    6    7        -0.0157652917
    7    7        -5.8147212667
    8    7         0.1225928474
    1    8         0.0632861982
    4    8        -0.1442256155
    5    8         0.7343176037
    6    8        -0.2134703651
    7    8         0.1225928474
    8    8        -4.9951086640
 end_one_electron_integrals
 begin_two_electron_integrals
    1    1    1    1        5.3550888741
    2    1    2    1        0.0392509166
    3    1    3    1        0.0392509175
    4    1    1    1       -0.5380509855
    4    1    4    1        0.0881787560
    4    1    2    2       -0.0160763613
    4    1    3    3       -0.0160763616
    5    1    1    1       -0.0171115883
    5    1    4    1       -0.0013388592
    5    1    5    1        0.0265478480
    5    1    2    2        0.0000514887
    5    1    3    3        0.0000514887
    5    1    4    4       -0.0086888414
    6    1    1    1        0.1312249953
    6    1    4    1       -0.0165238246
    6    1    5    1       -0.0344024531
    6    1    6    1        0.0484652375
    6    1    2    2        0.0024298108
    6    1    3    3        0.0024298083
    6    1    4    4        0.0150794611
    6    1    5    4       -0.0341621067
    6    1    5    5       -0.0060070898
    7    1    1    1        0.5883035044
    7    1    4    1       -0.1018894840
    7    1    5    1        0.0099275169
    7    1    6    1        0.0081261961
    7    1    7    1        0.1214139787
    7    1    2    2        0.0140633501
    7    1    3    3        0.0140633420
    7    1    4    4        0.0202799818
    7    1    5    4        0.0113042800
    7    1    6    4       -0.0144417762
    7    1    5    5        0.0106678297
    7    1    6    5       -0.0114979328
    7    1    6    6        0.0205036573
    8    1    1    1       -0.0474889037
    8    1    4    1        0.0104895503
    8    1    5    1       -0.0131402179
    8    1    6    1        0.0148760052
    8    1    7    1       -0.0160178732
    8    1    8    1        0.0102355025
    8    1    2    2        0.0030365575
    8    1    3    3        0.0030366338
    8    1    4    4        0.0012529949
    8    1    5    4       -0.0113330274
    8    1    6    4        0.0088517616
    8    1    7    4        0.0001310801
    8    1    5    5       -0.0099367215
    8    1    6    5        0.0070257649
    8    1    7    5        0.0066240299
    8    1    6    6       -0.0131769768
    8    1    7    6       -0.0086776739
    8    1    7    7        0.0022430003
    2    2    1    1        1.2199976499
    2    2    2    2        0.8871628313
    3    2    3    2        0.0434169004
    4    2    2    1        0.0400832517
    4    2    4    2        0.1698016307
    5    2    2    1        0.0018425409
    5    2    4    2        0.0069369341
    5    2    5    2        0.0352938615
    6    2    2    1       -0.0087935972
    6    2    4    2       -0.0260401384
    6    2    5    2       -0.0213553493
    6    2    6    2        0.0257835529
    7    2    2    1       -0.0207247183
    7    2    4    2       -0.0211739360
    7    2    5    2        0.0022730985
    7    2    6    2        0.0057829356
    7    2    7    2        0.0459677828
    8    2    2    1        0.0179410324
    8    2    4    2        0.0733845159
    8    2    5    2        0.0023467127
    8    2    6    2       -0.0114984174
    8    2    7    2       -0.0066635307
    8    2    8    2        0.0527752194
    3    3    1    1        1.2199976636
    3    3    2    2        0.8003290373
    3    3    3    3        0.8871628449
    4    3    3    1        0.0400832527
    4    3    4    3        0.1698016339
    5    3    3    1        0.0018425409
    5    3    4    3        0.0069369344
    5    3    5    3        0.0352938613
    6    3    3    1       -0.0087936082
    6    3    4    3       -0.0260401886
    6    3    5    3       -0.0213553527
    6    3    6    3        0.0257835696
    7    3    3    1       -0.0207247523
    7    3    4    3       -0.0211740818
    7    3    5    3        0.0022730906
    7    3    6    3        0.0057829624
    7    3    7    3        0.0459678070
    8    3    3    1        0.0179413327
    8    3    4    3        0.0733858025
    8    3    5    3        0.0023467990
    8    3    6    3       -0.0114986664
    8    3    7    3       -0.0066637112
    8    3    8    3        0.0527764538
    4    4    1    1        1.2822146249
    4    4    4    1       -0.0228621521
    4    4    2    2        0.8586649325
    4    4    3    3        0.8586649395
    4    4    4    4        0.9076496884
    5    4    1    1       -0.0373982845
    5    4    4    1       -0.0033409303
    5    4    5    1        0.0284097113
    5    4    2    2       -0.0094133753
    5    4    3    3       -0.0094133753
    5    4    4    4       -0.0497946648
    5    4    5    4        0.1339026236
    6    4    1    1       -0.0799885727
    6    4    4    1        0.0073987700
    6    4    5    1       -0.0233121029
    6    4    6    1        0.0274634204
    6    4    2    2       -0.0412886612
    6    4    3    3       -0.0412886841
    6    4    4    4       -0.0133237136
    6    4    5    4       -0.0773957214
    6    4    6    4        0.0673871166
    6    4    5    5       -0.0296798784
    7    4    1    1       -0.5675886306
    7    4    4    1        0.0274894345
    7    4    5    1        0.0088375442
    7    4    6    1       -0.0165224447
    7    4    7    1       -0.0252270405
    7    4    2    2       -0.1836701219
    7    4    3    3       -0.1836701896
    7    4    4    4       -0.2039808398
    7    4    5    4        0.0212730119
    7    4    6    4        0.0011302800
    7    4    7    4        0.1357932682
    7    4    5    5       -0.1477649562
    7    4    6    5        0.1185541715
    7    4    6    6       -0.1546382953
    8    4    1    1        0.0483084469
    8    4    4    1       -0.0030617824
    8    4    5    1       -0.0013256321
    8    4    6    1        0.0017104959
    8    4    7    1        0.0039522886
    8    4    8    1        0.0076465830
    8    4    2    2        0.0432098717
    8    4    3    3        0.0432104480
    8    4    4    4        0.0066194003
    8    4    5    4        0.0123602576
    8    4    6    4       -0.0183026904
    8    4    7    4       -0.0028996138
    8    4    8    4        0.0805232500
    8    4    5    5       -0.0429732847
    8    4    6    5        0.0184616432
    8    4    7    5        0.0049237565
    8    4    6    6       -0.0259135906
    8    4    7    6        0.0028935387
    8    4    7    7       -0.0055700390
    5    5    1    1        1.0077086328
    5    5    4    1       -0.0119192521
    5    5    5    1        0.0071913909
    5    5    2    2        0.7071704844
    5    5    3    3        0.7071704883
    5    5    4    4        0.7442879615
    5    5    5    4        0.0478376982
    5    5    5    5        0.7618034416
    6    5    1    1       -0.5326900129
    6    5    4    1        0.0140086471
    6    5    5    1       -0.0013223822
    6    5    6    1       -0.0010635750
    6    5    2    2       -0.2295148363
    6    5    3    3       -0.2295148403
    6    5    4    4       -0.2588118705
    6    5    5    4        0.0399518900
    6    5    6    4        0.0257289807
    6    5    5    5       -0.1369226939
    6    5    6    5        0.2321929188
    7    5    1    1        0.1272201262
    7    5    4    1       -0.0015231139
    7    5    5    1       -0.0187524643
    7    5    6    1        0.0238777750
    7    5    7    1       -0.0048676534
    7    5    2    2        0.0448526186
    7    5    3    3        0.0448526178
    7    5    4    4        0.0579371771
    7    5    5    4       -0.0308830562
    7    5    6    4        0.0349529158
    7    5    7    4       -0.0458630776
    7    5    5    5        0.0451879649
    7    5    6    5       -0.0088411651
    7    5    7    5        0.0486928907
    7    5    6    6        0.0464735438
    8    5    1    1       -0.1574371655
    8    5    4    1        0.0087498675
    8    5    5    1       -0.0229227898
    8    5    6    1        0.0263165502
    8    5    7    1       -0.0139607726
    8    5    8    1        0.0119978473
    8    5    2    2       -0.0597297434
    8    5    3    3       -0.0597297157
    8    5    4    4       -0.0352130425
    8    5    5    4       -0.1100800181
    8    5    6    4        0.0677054509
    8    5    7    4        0.0259191644
    8    5    8    4       -0.0060007839
    8    5    5    5       -0.1092210698
    8    5    6    5        0.0125827690
    8    5    7    5        0.0139932011
    8    5    8    5        0.1321811597
    8    5    6    6       -0.1184660087
    8    5    7    6       -0.0544192336
    8    5    7    7       -0.0000059751
    6    6    1    1        1.0551538836
    6    6    4    1       -0.0207092791
    6    6    5    1        0.0124523388
    6    6    6    1       -0.0109416505
    6    6    2    2        0.6687186931
    6    6    3    3        0.6687187054
    6    6    4    4        0.6897834553
    6    6    5    4        0.0668439014
    6    6    6    4       -0.0361370408
    6    6    5    5        0.7426864842
    6    6    6    5       -0.0872976339
    6    6    6    6        0.7865595389
    7    6    1    1       -0.0279120993
    7    6    4    1       -0.0039366053
    7    6    5    1        0.0235204131
    7    6    6    1       -0.0286067913
    7    6    7    1        0.0119129557
    7    6    2    2       -0.0012757043
    7    6    3    3       -0.0012756927
    7    6    4    4       -0.0226012025
    7    6    5    4        0.0700008153
    7    6    6    4       -0.0483964692
    7    6    7    4        0.0223295557
    7    6    5    5        0.0220169500
    7    6    6    5        0.0201873803
    7    6    7    5       -0.0336938606
    7    6    6    6        0.0314015224
    7    6    7    6        0.0505352623
    8    6    1    1        0.0976380506
    8    6    4    1       -0.0089582493
    8    6    5    1        0.0195661627
    8    6    6    1       -0.0223903793
    8    6    7    1        0.0133694054
    8    6    8    1       -0.0116135268
    8    6    2    2        0.0071574086
    8    6    3    3        0.0071572770
    8    6    4    4       -0.0109559751
    8    6    5    4        0.0659550176
    8    6    6    4       -0.0505956399
    8    6    7    4       -0.0099784335
    8    6    8    4        0.0000730492
    8    6    5    5        0.0301037238
    8    6    6    5       -0.0210178156
    8    6    7    5       -0.0235851297
    8    6    8    5       -0.0754919489
    8    6    6    6        0.0460883387
    8    6    7    6        0.0366636193
    8    6    8    6        0.0633112370
    8    6    7    7       -0.0189143431
    7    7    1    1        1.1884504676
    7    7    4    1       -0.0334936762
    7    7    5    1       -0.0182305562
    7    7    6    1        0.0293831830
    7    7    7    1        0.0287378750
    7    7    2    2        0.7160827860
    7    7    3    3        0.7160827974
    7    7    4    4        0.7621449725
    7    7    5    4       -0.0749284695
    7    7    6    4        0.0128436614
    7    7    7    4       -0.1603285856
    7    7    5    5        0.6244357158
    7    7    6    5       -0.2111696419
    7    7    7    5        0.0524287241
    7    7    6    6        0.5820884139
    7    7    7    6       -0.0418929329
    7    7    7    7        0.6983995953
    8    7    1    1       -0.0328558254
    8    7    4    1        0.0044201951
    8    7    5    1        0.0041953960
    8    7    6    1       -0.0056990264
    8    7    7    1       -0.0042638278
    8    7    8    1       -0.0053325846
    8    7    2    2        0.0042479565
    8    7    3    3        0.0042478817
    8    7    4    4        0.0038514437
    8    7    5    4        0.0214682501
    8    7    6    4       -0.0093341802
    8    7    7    4       -0.0036587610
    8    7    8    4       -0.0048654712
    8    7    5    5        0.0221286125
    8    7    6    5       -0.0101898330
    8    7    7    5        0.0066990710
    8    7    8    5       -0.0228249147
    8    7    6    6        0.0252193964
    8    7    7    6        0.0042573311
    8    7    8    6        0.0140047176
    8    7    7    7       -0.0058504112
    8    7    8    7        0.0318281392
    8    8    1    1        1.0548884301
    8    8    4    1       -0.0072897533
    8    8    5    1        0.0061937775
    8    8    6    1       -0.0062964194
    8    8    7    1        0.0065629135
    8    8    8    1       -0.0078046807
    8    8    2    2        0.7792744106
    8    8    3    3        0.7792751250
    8    8    4    4        0.8341474724
    8    8    5    4       -0.0117605941
    8    8    6    4       -0.0271275781
    8    8    7    4       -0.1572248711
    8    8    8    4       -0.0466543509
    8    8    5    5        0.7479999875
    8    8    6    5       -0.2329952882
    8    8    7    5        0.0277586959
    8    8    8    5       -0.0595747433
    8    8    6    6        0.6851850245
    8    8    7    6        0.0053054433
    8    8    8    6        0.0090857801
    8    8    7    7        0.6995313749
    8    8    8    7        0.0106445150
    8    8    8    8        0.8461823326
 end_two_electron_integrals
 enrep_tce =    4.4782803403493041     
  EHF(A)             =      -100.03283961
  EHF(total)         =      -100.03283961
  Shift (HFtot-HFA)  =         0.00000000
 Cpu & wall time / sec            0.4            0.4
 T1-number-of-tasks                   15

 t1 file size   =               15
 t1 file name   = ./HF.t1
 t1 file handle =       -998
 T2-number-of-boxes                  315

 t2 file size   =              315
 t2 file name   = ./HF.t2
 t2 file handle =       -996
CCSD iterations
 ---------------------------------------------------------
 Iter          Residuum       Correlation     Cpu    Wall 
 ---------------------------------------------------------
NEW TASK SCHEDULING
CCSD_T1_NTS --- OK
CCSD_T2_NTS --- OK
    1   1.1117461774922  -0.1459813049824     1.8     2.5
    2   4.1143311024074   0.1866838980519     1.9     2.5
    3  19.2725269242365  -0.8164323411284     1.9     2.5
    4  61.3416253728177   3.0615604832727     1.8     2.5
    5 467.6063264763983  -6.6399954166847     1.7     2.5
 MICROCYCLE DIIS UPDATE:                    5                    5
    6   0.3163300968010  -0.0630758154035     1.7     2.5
    7   1.6101914454677  -0.0328782912795     1.8     2.5
    8   8.4607475466083  -0.1793602325983     1.8     2.5
    9  40.6275279162482   0.6059748389808     1.9     2.5
   10 285.2144998978908  -2.8022076061705     1.9     2.5
 MICROCYCLE DIIS UPDATE:                   10                    5
   11   0.0263694200183  -0.0569908128053     1.7     2.5
   12   0.1311695346932  -0.0578862205332     2.0     2.5
   13   0.6790411239876  -0.0482056165233     1.8     2.5
   14   3.5630962453909  -0.1043956446487     1.8     2.5
   15  18.0708727395173   0.1990233266472     1.9     2.5
 MICROCYCLE DIIS UPDATE:                   15                    5
   16   0.0097982066132  -0.0565428714436     1.7     2.5
   17   0.0507233122794  -0.0574053479351     1.8     2.6
   18   0.2654555261745  -0.0531914355178     1.8     2.5
   19   1.3951822756762  -0.0751945258385     1.8     2.5
   20   7.2371598650152   0.0398519629592     1.8     2.5
 MICROCYCLE DIIS UPDATE:                   20                    5
   21   0.0020560709822  -0.0567270730286     1.8     2.5
   22   0.0106916088521  -0.0568561877685     1.9     2.5
   23   0.0561543288294  -0.0560198875989     1.9     2.6
   24   0.2953488984575  -0.0604809842827     1.8     2.5
   25   1.5493253579064  -0.0370035298834     1.9     2.5
 MICROCYCLE DIIS UPDATE:                   25                    5
   26   0.0000982946518  -0.0567271536430     1.8     2.5
   27   0.0004122885596  -0.0567348471569     1.8     2.5
   28   0.0021662828994  -0.0567092125172     1.7     2.5
   29   0.0114546226711  -0.0568549853771     1.7     2.5
   30   0.0606335203211  -0.0560417968399     1.9     2.5
 MICROCYCLE DIIS UPDATE:                   30                    5
   31   0.0000096142582  -0.0567318171797     1.7     2.5
   32   0.0000219482772  -0.0567297879914     1.8     2.5
   33   0.0000937360271  -0.0567340409630     1.8     2.5
   34   0.0004366819571  -0.0567196437640     1.7     2.5
   35   0.0021231101994  -0.0567745909721     1.7     2.5
 MICROCYCLE DIIS UPDATE:                   35                    5
   36   0.0000016947508  -0.0567308379282     2.0     2.7
   37   0.0000033667542  -0.0567309437594     1.8     2.7
   38   0.0000150649797  -0.0567307928279     1.8     2.6
   39   0.0000740073980  -0.0567317811788     1.8     2.5
   40   0.0003777540882  -0.0567259002654     1.9     2.5
 MICROCYCLE DIIS UPDATE:                   40                    5
   41   0.0000002838659  -0.0567309477390     1.8     2.5
   42   0.0000005875895  -0.0567308909790     1.8     2.5
   43   0.0000021616458  -0.0567309983706     1.8     2.5
   44   0.0000086132606  -0.0567306747465     1.8     2.5
   45   0.0000359899017  -0.0567317500763     1.7     2.5
 MICROCYCLE DIIS UPDATE:                   45                    5
   46   0.0000000479017  -0.0567309193250     1.8     2.5
 -----------------------------------------------------------------
 Iterations converged
 CCSD correlation energy / hartree =        -0.056730919325020
 CCSD total energy / hartree       =      -100.089570526973517

 Singles contributions

 Doubles contributions
     6a   (alpha)     6a   (beta ) ---     5a   (alpha)     5a   (beta )       -0.1278355559
     6a   (alpha)     7a   (beta ) ---     5a   (alpha)     4a   (beta )       -0.0286586962
     7a   (alpha)     6a   (beta ) ---     4a   (alpha)     5a   (beta )       -0.0286586962
     7a   (alpha)     7a   (beta ) ---     4a   (alpha)     4a   (beta )       -0.0235417380
 Ground state specification:
 exp(T)|Ref>~(1+T)|Ref>
 ------- a(p)+/a(q) strings ----------

 singles norm

 doubles norm

 Reference string
  0.99192783770859250      :(1a)+ (2a)+ (3a)+ (4a)+ (5a)+ (1b)+ (2b)+ (3b)+ (4b)+ (5b)+ |0>

 Singles strings

 Doubles strings
 -0.12680364655149415      :(6a)+ (6b)+ (5b)  (5a)  (1a)+ (2a)+ (3a)+ (4a)+ (5a)+ (1b)+ (2b)+ (3b)+ (4b)+ (5b)+ |0>
 -------------------------------------

 Parallel integral file used       3 records with       0 large values


 Task  times  cpu:       83.9s     wall:      118.4s


                                NWChem Input Module
                                -------------------


 Summary of allocated global arrays
-----------------------------------
  No active global arrays


MA_summarize_allocated_blocks: starting scan ...
MA_summarize_allocated_blocks: scan completed: 0 heap blocks, 0 stack blocks
MA usage statistics:

	allocation statistics:
					      heap	     stack
					      ----	     -----
	current number of blocks	         0	         0
	maximum number of blocks	        18	        42
	current total bytes		         0	         0
	maximum total bytes		   9520896	  26465464
	maximum total K-bytes		      9521	     26466
	maximum total M-bytes		        10	        27


                                     CITATION
                                     --------
                Please cite the following reference when publishing
                           results obtained with NWChem:

          E. Apra, E. J. Bylaska, W. A. de Jong, N. Govind, K. Kowalski,
       T. P. Straatsma, M. Valiev, H. J. J. van Dam, Y. Alexeev, J. Anchell,
       V. Anisimov, F. W. Aquino, R. Atta-Fynn, J. Autschbach, N. P. Bauman,
     J. C. Becca, D. E. Bernholdt, K. Bhaskaran-Nair, S. Bogatko, P. Borowski,
         J. Boschen, J. Brabec, A. Bruner, E. Cauet, Y. Chen, G. N. Chuev,
      C. J. Cramer, J. Daily, M. J. O. Deegan, T. H. Dunning Jr., M. Dupuis,
   K. G. Dyall, G. I. Fann, S. A. Fischer, A. Fonari, H. Fruchtl, L. Gagliardi,
      J. Garza, N. Gawande, S. Ghosh, K. Glaesemann, A. W. Gotz, J. Hammond,
       V. Helms, E. D. Hermes, K. Hirao, S. Hirata, M. Jacquelin, L. Jensen,
   B. G. Johnson, H. Jonsson, R. A. Kendall, M. Klemm, R. Kobayashi, V. Konkov,
      S. Krishnamoorthy, M. Krishnan, Z. Lin, R. D. Lins, R. J. Littlefield,
      A. J. Logsdail, K. Lopata, W. Ma, A. V. Marenich, J. Martin del Campo,
   D. Mejia-Rodriguez, J. E. Moore, J. M. Mullin, T. Nakajima, D. R. Nascimento,
    J. A. Nichols, P. J. Nichols, J. Nieplocha, A. Otero-de-la-Roza, B. Palmer,
    A. Panyala, T. Pirojsirikul, B. Peng, R. Peverati, J. Pittner, L. Pollack,
   R. M. Richard, P. Sadayappan, G. C. Schatz, W. A. Shelton, D. W. Silverstein,
   D. M. A. Smith, T. A. Soares, D. Song, M. Swart, H. L. Taylor, G. S. Thomas,
            V. Tipparaju, D. G. Truhlar, K. Tsemekhman, T. Van Voorhis,
      A. Vazquez-Mayagoitia, P. Verma, O. Villa, A. Vishnu, K. D. Vogiatzis,
        D. Wang, J. H. Weare, M. J. Williamson, T. L. Windus, K. Wolinski,
        A. T. Wong, Q. Wu, C. Yang, Q. Yu, M. Zacharias, Z. Zhang, Y. Zhao,
                                and R. J. Harrison
                        "NWChem: Past, present, and future
                         J. Chem. Phys. 152, 184102 (2020)
                               doi:10.1063/5.0004997

                                      AUTHORS
                                      -------
  E. Apra, E. J. Bylaska, N. Govind, K. Kowalski, M. Valiev, D. Mejia-Rodriguez,
       A. Kunitsa, N. P. Bauman, A. Panyala, W. A. de Jong, T. P. Straatsma,
        H. J. J. van Dam, D. Wang, T. L. Windus, J. Hammond, J. Autschbach,
    K. Bhaskaran-Nair, J. Brabec, K. Lopata, S. A. Fischer, S. Krishnamoorthy,
     M. Jacquelin, W. Ma, M. Klemm, O. Villa, Y. Chen, V. Anisimov, F. Aquino,
    S. Hirata, M. T. Hackler, Eric Hermes, L. Jensen, J. E. Moore, J. C. Becca,
      V. Konjkov, T. Risthaus, M. Malagoli, A. Marenich, A. Otero-de-la-Roza,
        J. Mullin, P. Nichols, R. Peverati, J. Pittner, Y. Zhao, P.-D. Fan,
        A. Fonari, M. J. Williamson, R. J. Harrison, J. R. Rehr, M. Dupuis,
     D. Silverstein, D. M. A. Smith, J. Nieplocha, V. Tipparaju, M. Krishnan,
     B. E. Van Kuiken, A. Vazquez-Mayagoitia, M. Swart, Q. Wu, T. Van Voorhis,
     A. A. Auer, M. Nooijen, L. D. Crosby, E. Brown, G. Cisneros, G. I. Fann,
   H. Fruchtl, J. Garza, K. Hirao, R. A. Kendall, J. A. Nichols, K. Tsemekhman,
    K. Wolinski, J. Anchell, D. E. Bernholdt, P. Borowski, T. Clark, D. Clerc,
   H. Dachsel, M. J. O. Deegan, K. Dyall, D. Elwood, E. Glendening, M. Gutowski,
   A. C. Hess, J. Jaffe, B. G. Johnson, J. Ju, R. Kobayashi, R. Kutteh, Z. Lin,
   R. Littlefield, X. Long, B. Meng, T. Nakajima, S. Niu, L. Pollack, M. Rosing,
   K. Glaesemann, G. Sandrone, M. Stave, H. Taylor, G. Thomas, J. H. van Lenthe,
                               A. T. Wong, Z. Zhang.

 Total times  cpu:       85.8s     wall:      121.5s
