 argument  1 = input.nw
  NWChem w/ OpenMP: maximum threads =    1



============================== echo of input deck ==============================
 echo
 start HF
 title "HF"

 memory total 24 gb

 geometry units bohr
 symmetry c1
        F  0.00000000  0.00000000  0.00000000
        H  0.00000000  2.2609125  0.00000000
 end

 basis spherical
   * library cc-pVTZ
 end

 mcscf
   active  8
   actelec 10
   multiplicity 1
   maxiter 40
   vectors input HF.mos
   vectors output HF.mos
 end

 task mcscf

 scf
   vectors input HF.mos
   vectors output HF-trash.mos
   noscf
 end

 tce
   2eorb
   2emet 13
   ccsd
   maxiter 500
 end

 set tce:print_integrals T
 set tce:qorb 8
 set tce:qela 5
 set tce:qelb 5

# set tce:qducc T
# set tce:nactv 3
# set tce:nonhf T
# set tce:ducc_model 3

 set tce:printtol 0.02

 task tce
================================================================================


                                         
                                         


             Northwest Computational Chemistry Package (NWChem) 7.0.1
             --------------------------------------------------------


                    Environmental Molecular Sciences Laboratory
                       Pacific Northwest National Laboratory
                                Richland, WA 99352

                              Copyright (c) 1994-2020
                       Pacific Northwest National Laboratory
                            Battelle Memorial Institute

             NWChem is an open-source computational chemistry package
                        distributed under the terms of the
                      Educational Community License (ECL) 2.0
             A copy of the license is included with this distribution
                              in the LICENSE.TXT file

                                  ACKNOWLEDGMENT
                                  --------------

            This software and its documentation were developed at the
            EMSL at Pacific Northwest National Laboratory, a multiprogram
            national laboratory, operated for the U.S. Department of Energy
            by Battelle under Contract Number DE-AC05-76RL01830. Support
            for this work was provided by the Department of Energy Office
            of Biological and Environmental Research, Office of Basic
            Energy Sciences, and the Office of Advanced Scientific Computing.


           Job information
           ---------------

    hostname        = WE46210
    program         = /home/baum612/code/nwchem/bin/LINUX64/nwchem
    date            = Thu Apr 25 14:26:37 2024

    compiled        = Mon_Apr_01_12:20:50_2024
    source          = /home/baum612/code/nwchem
    nwchem branch   = 7.0.0
    nwchem revision = nwchem_on_git-4191-g39d87d64de
    ga revision     = 5.8.1
    use scalapack   = F
    input           = input.nw
    prefix          = HF.
    data base       = ./HF.db
    status          = startup
    nproc           =        1
    time left       =     -1s



           Memory information
           ------------------

    heap     =  805306366 doubles =   6144.0 Mbytes
    stack    =  805306363 doubles =   6144.0 Mbytes
    global   = 1610612736 doubles =  12288.0 Mbytes (distinct from heap & stack)
    total    = 3221225465 doubles =  24576.0 Mbytes
    verify   = yes
    hardfail = no 


           Directory information
           ---------------------

  0 permanent = .
  0 scratch   = .




                                NWChem Input Module
                                -------------------


                                        HF
                                        --
 Turning off AUTOSYM since
 SYMMETRY directive was detected!


          ------
          auto-z
          ------
     1 autoz failed with cvr_scaling = 1.2 changing to 1.3
  no constraints, skipping    0.0000000000000000     
  no constraints, skipping    0.0000000000000000     


                             Geometry "geometry" -> ""
                             -------------------------

 Output coordinates in a.u. (scale by  1.000000000 to convert to a.u.)

  No.       Tag          Charge          X              Y              Z
 ---- ---------------- ---------- -------------- -------------- --------------
    1 F                    9.0000     0.00000000    -0.22609125     0.00000000
    2 H                    1.0000     0.00000000     2.03482125     0.00000000

      Atomic Mass 
      ----------- 

      F                 18.998400
      H                  1.007825


 Effective nuclear repulsion energy (a.u.)       3.9806936359

            Nuclear Dipole moment (a.u.) 
            ----------------------------
        X                 Y               Z
 ---------------- ---------------- ----------------
     0.0000000000     0.0000000000     0.0000000000



                                Z-matrix (autoz)
                                -------- 

 Units are Angstrom for bonds and degrees for angles

      Type          Name      I     J     K     L     M      Value
      ----------- --------  ----- ----- ----- ----- ----- ----------
    1 Stretch                  1     2                       1.19642


            XYZ format geometry
            -------------------
     2
 geometry
 F                     0.00000000    -0.11964235     0.00000000
 H                     0.00000000     1.07678111     0.00000000



 Summary of "ao basis" -> "" (spherical)
 ------------------------------------------------------------------------------
       Tag                 Description            Shells   Functions and Types
 ---------------- ------------------------------  ------  ---------------------
 *                          cc-pVTZ                   on all atoms 


                      Basis "ao basis" -> "ao basis" (spherical)
                      -----
  F (Fluorine)
  ------------
            Exponent  Coefficients 
       -------------- ---------------------------------------------------------
  1 S  1.95000000E+04  0.000507
  1 S  2.92300000E+03  0.003923
  1 S  6.64500000E+02  0.020200
  1 S  1.87500000E+02  0.079010
  1 S  6.06200000E+01  0.230439
  1 S  2.14200000E+01  0.432872
  1 S  7.95000000E+00  0.349964
  1 S  8.81500000E-01 -0.007892

  2 S  1.95000000E+04 -0.000117
  2 S  2.92300000E+03 -0.000912
  2 S  6.64500000E+02 -0.004717
  2 S  1.87500000E+02 -0.019086
  2 S  6.06200000E+01 -0.059655
  2 S  2.14200000E+01 -0.140010
  2 S  7.95000000E+00 -0.176782
  2 S  8.81500000E-01  0.605043

  3 S  2.25700000E+00  1.000000

  4 S  3.04100000E-01  1.000000

  5 P  4.38800000E+01  0.016665
  5 P  9.92600000E+00  0.104472
  5 P  2.93000000E+00  0.317260

  6 P  9.13200000E-01  1.000000

  7 P  2.67200000E-01  1.000000

  8 D  3.10700000E+00  1.000000

  9 D  8.55000000E-01  1.000000

 10 F  1.91700000E+00  1.000000

  H (Hydrogen)
  ------------
            Exponent  Coefficients 
       -------------- ---------------------------------------------------------
  1 S  3.38700000E+01  0.006068
  1 S  5.09500000E+00  0.045308
  1 S  1.15900000E+00  0.202822

  2 S  3.25800000E-01  1.000000

  3 S  1.02700000E-01  1.000000

  4 P  1.40700000E+00  1.000000

  5 P  3.88000000E-01  1.000000

  6 D  1.05700000E+00  1.000000



 Summary of "ao basis" -> "ao basis" (spherical)
 ------------------------------------------------------------------------------
       Tag                 Description            Shells   Functions and Types
 ---------------- ------------------------------  ------  ---------------------
 F                          cc-pVTZ                 10       30   4s3p2d1f
 H                          cc-pVTZ                  6       14   3s2p1d



                            NWChem Direct MCSCF Module
                            --------------------------


                                        HF


     -----------------------------------
       Basis functions:             44
       Inactive shells:              0
       Active shells:                8
       Active electrons:            10
       Symmetry:                    a       
       Multiplicity:                 1
       Orbital rotations:          288
     -----------------------------------

     -----------------------------------
       E2 extrapolation:             F
       Conjugacy:                    T
       Micro CI relax:               T
       Canonical orbitals:           T
       Maximum iterations:          40
       Converge threshold:    1.00E-04
       Conjugacy resets:            20
       Initial levelshift:        0.10
     -----------------------------------

 Loading old vectors from job with title :

HF


   input molecular orbitals = ./HF.mos
  output molecular orbtials = ./HF.mos

       No. of determinants:          3136


  Starting Orbital Energies
   -26.296466    -1.544712    -0.690987    -0.634725    -0.634725    -0.044113
    -0.007470    -0.003548     0.374960     0.776069     0.776069     1.019651
     1.019651     1.081640     1.721302     2.259224     2.259224     2.348926
     2.348926     2.591592     3.431577     3.431577     3.802700     3.802700
     3.904356     3.989532     3.989532     4.346026     5.165704     5.165704
     6.098765     7.419942     7.419942     7.431646     7.431646     7.743900
     7.743900     7.837348     8.883866     8.883866     9.149099     9.149099
     9.240809    10.283759

  Orbital Symmetry Irreps
a    a    a    a    a    a    a    a    a    a    a    a    a    a    a   
a    a    a    a    a    a    a    a    a    a    a    a    a    a    a   
a    a    a    a    a    a    a    a    a    a    a    a    a    a   

 Integral file          = ./HF.aoints.0
 Record size in doubles =  65536        No. of integs per rec  =  43688
 Max. records in memory =     18        Max. records in file   = 250978
 No. of bits per label  =      8        No. of bits per value  =     64


 #quartets = 9.316D+03 #integrals = 1.251D+05 #direct =  0.0% #cached =100.0%




          %%%%% MacroIteration   1 %%%%%


          Number of sigma calls:       21
                       o<<<<< (aa):             0.00
                       o<<<<< (bb):             0.00
                       o<<<<< (ab):             0.07
                       o<<<<< (total)           0.08
                       o<<<<< (aa) ff           0.00
                       o<<<<< (aa) gop          0.00
                       o<<<<< (aa) dot          0.00
                       o<<<<< (ab) str          0.00
                       o<<<<< (ab) gath         0.00
                       o<<<<< (ab) dotab        0.00
                       o<<<<< (ab) scat         0.00
                       o<<<<< (ab) sync         0.00
                       o<<<<< Density           0.01
                       o<<<<< Density one       0.00
                       o<<<<< Density two       0.00
                       o<<<<< Density ab        0.01
                       o<<<<< Spin adapt        0.16
                       o<<<<< Symm adapt        0.00

                       o<<<<< (ab) max sync:      0.00

           >>>| Valence CI:           -104.041099187930
           >>>| MCSCF energy:         -100.060405552064
           >>>| Gradient norm:          0.137592098D-01
     --- Warning:   27 Hessian diagonals < 0.05 ---

                              ----- Line search ------

        step       energy         lsg     num-lsg   num-lsh   lsrat    time
      ------- ---------------- --------- --------- --------- ------- --------
       0.0000    -100.06040555 -1.85D-05  0.00D+00  0.00D+00 0.0D+00      0.5

          Number of sigma calls:       19
                       o<<<<< (aa):             0.00
                       o<<<<< (bb):             0.00
                       o<<<<< (ab):             0.06
                       o<<<<< (total)           0.07
                       o<<<<< (aa) ff           0.00
                       o<<<<< (aa) gop          0.00
                       o<<<<< (aa) dot          0.00
                       o<<<<< (ab) str          0.00
                       o<<<<< (ab) gath         0.00
                       o<<<<< (ab) dotab        0.00
                       o<<<<< (ab) scat         0.00
                       o<<<<< (ab) sync         0.00
                       o<<<<< Density           0.01
                       o<<<<< Density one       0.00
                       o<<<<< Density two       0.00
                       o<<<<< Density ab        0.01
                       o<<<<< Spin adapt        0.14
                       o<<<<< Symm adapt        0.00

                       o<<<<< (ab) max sync:      0.00
       1.0000    -100.06041577 -1.92D-06 -1.92D-06  1.66D-05 1.0D-01      0.8

          Number of sigma calls:       16
                       o<<<<< (aa):             0.00
                       o<<<<< (bb):             0.00
                       o<<<<< (ab):             0.04
                       o<<<<< (total)           0.05
                       o<<<<< (aa) ff           0.00
                       o<<<<< (aa) gop          0.00
                       o<<<<< (aa) dot          0.00
                       o<<<<< (ab) str          0.00
                       o<<<<< (ab) gath         0.00
                       o<<<<< (ab) dotab        0.00
                       o<<<<< (ab) scat         0.00
                       o<<<<< (ab) sync         0.00
                       o<<<<< Density           0.00
                       o<<<<< Density one       0.00
                       o<<<<< Density two       0.00
                       o<<<<< Density ab        0.00
                       o<<<<< Spin adapt        0.16
                       o<<<<< Symm adapt        0.00

                       o<<<<< (ab) max sync:      0.00
       1.1158    -100.06041588  1.20D-09  1.18D-09  1.66D-05 6.5D-05      1.0
     --- Orbitals canonicalized ---



          %%%%% MacroIteration   2 %%%%%


          Number of sigma calls:       17
                       o<<<<< (aa):             0.00
                       o<<<<< (bb):             0.00
                       o<<<<< (ab):             0.05
                       o<<<<< (total)           0.06
                       o<<<<< (aa) ff           0.00
                       o<<<<< (aa) gop          0.00
                       o<<<<< (aa) dot          0.00
                       o<<<<< (ab) str          0.00
                       o<<<<< (ab) gath         0.00
                       o<<<<< (ab) dotab        0.00
                       o<<<<< (ab) scat         0.00
                       o<<<<< (ab) sync         0.00
                       o<<<<< Density           0.01
                       o<<<<< Density one       0.00
                       o<<<<< Density two       0.00
                       o<<<<< Density ab        0.01
                       o<<<<< Spin adapt        0.12
                       o<<<<< Symm adapt        0.00

                       o<<<<< (ab) max sync:      0.00

           >>>| Valence CI:           -104.041109512955
           >>>| MCSCF energy:         -100.060415877089
           >>>| Gradient norm:          0.271854505D-02
     --- Warning:   48 Hessian diagonals < 0.05 ---
     --- Conjugacy reset ---

                              ----- Line search ------

        step       energy         lsg     num-lsg   num-lsh   lsrat    time
      ------- ---------------- --------- --------- --------- ------- --------
       0.0000    -100.06041588 -6.99D-07  0.00D+00  0.00D+00 0.0D+00      1.3

          Number of sigma calls:       15
                       o<<<<< (aa):             0.00
                       o<<<<< (bb):             0.00
                       o<<<<< (ab):             0.05
                       o<<<<< (total)           0.05
                       o<<<<< (aa) ff           0.00
                       o<<<<< (aa) gop          0.00
                       o<<<<< (aa) dot          0.00
                       o<<<<< (ab) str          0.00
                       o<<<<< (ab) gath         0.00
                       o<<<<< (ab) dotab        0.00
                       o<<<<< (ab) scat         0.00
                       o<<<<< (ab) sync         0.00
                       o<<<<< Density           0.00
                       o<<<<< Density one       0.00
                       o<<<<< Density two       0.00
                       o<<<<< Density ab        0.00
                       o<<<<< Spin adapt        0.11
                       o<<<<< Symm adapt        0.00

                       o<<<<< (ab) max sync:      0.00
       1.0000    -100.06041633 -2.10D-07 -2.10D-07  4.89D-07 3.0D-01      1.5

          Number of sigma calls:       14
                       o<<<<< (aa):             0.00
                       o<<<<< (bb):             0.00
                       o<<<<< (ab):             0.03
                       o<<<<< (total)           0.03
                       o<<<<< (aa) ff           0.00
                       o<<<<< (aa) gop          0.00
                       o<<<<< (aa) dot          0.00
                       o<<<<< (ab) str          0.00
                       o<<<<< (ab) gath         0.00
                       o<<<<< (ab) dotab        0.00
                       o<<<<< (ab) scat         0.00
                       o<<<<< (ab) sync         0.00
                       o<<<<< Density           0.01
                       o<<<<< Density one       0.00
                       o<<<<< Density two       0.00
                       o<<<<< Density ab        0.01
                       o<<<<< Spin adapt        0.09
                       o<<<<< Symm adapt        0.00

                       o<<<<< (ab) max sync:      0.00
       1.4297    -100.06041638  3.07D-10  2.92D-10  4.90D-07 4.4D-04      1.7



          %%%%% MacroIteration   3 %%%%%


          Number of sigma calls:        1
                       o<<<<< (aa):             0.00
                       o<<<<< (bb):             0.00
                       o<<<<< (ab):             0.00
                       o<<<<< (total)           0.00
                       o<<<<< (aa) ff           0.00
                       o<<<<< (aa) gop          0.00
                       o<<<<< (aa) dot          0.00
                       o<<<<< (ab) str          0.00
                       o<<<<< (ab) gath         0.00
                       o<<<<< (ab) dotab        0.00
                       o<<<<< (ab) scat         0.00
                       o<<<<< (ab) sync         0.00
                       o<<<<< Density           0.00
                       o<<<<< Density one       0.00
                       o<<<<< Density two       0.00
                       o<<<<< Density ab        0.00
                       o<<<<< Spin adapt        0.00
                       o<<<<< Symm adapt        0.00

                       o<<<<< (ab) max sync:      0.00

           >>>| Valence CI:           -104.041110012662
           >>>| MCSCF energy:         -100.060416376796
           >>>| Gradient norm:          0.671135576D-03
     --- Warning:   48 Hessian diagonals < 0.05 ---

                              ----- Line search ------

        step       energy         lsg     num-lsg   num-lsh   lsrat    time
      ------- ---------------- --------- --------- --------- ------- --------
       0.0000    -100.06041638 -4.66D-08  0.00D+00  0.00D+00 0.0D+00      1.7

          Number of sigma calls:       13
                       o<<<<< (aa):             0.00
                       o<<<<< (bb):             0.00
                       o<<<<< (ab):             0.05
                       o<<<<< (total)           0.05
                       o<<<<< (aa) ff           0.00
                       o<<<<< (aa) gop          0.00
                       o<<<<< (aa) dot          0.00
                       o<<<<< (ab) str          0.00
                       o<<<<< (ab) gath         0.00
                       o<<<<< (ab) dotab        0.00
                       o<<<<< (ab) scat         0.00
                       o<<<<< (ab) sync         0.00
                       o<<<<< Density           0.00
                       o<<<<< Density one       0.00
                       o<<<<< Density two       0.00
                       o<<<<< Density ab        0.00
                       o<<<<< Spin adapt        0.09
                       o<<<<< Symm adapt        0.00

                       o<<<<< (ab) max sync:      0.00
       1.0000    -100.06041640 -8.36D-09 -8.36D-09  3.83D-08 1.8D-01      1.9

          Number of sigma calls:       11
                       o<<<<< (aa):             0.00
                       o<<<<< (bb):             0.00
                       o<<<<< (ab):             0.04
                       o<<<<< (total)           0.04
                       o<<<<< (aa) ff           0.00
                       o<<<<< (aa) gop          0.00
                       o<<<<< (aa) dot          0.00
                       o<<<<< (ab) str          0.00
                       o<<<<< (ab) gath         0.00
                       o<<<<< (ab) dotab        0.00
                       o<<<<< (ab) scat         0.00
                       o<<<<< (ab) sync         0.00
                       o<<<<< Density           0.01
                       o<<<<< Density one       0.00
                       o<<<<< Density two       0.00
                       o<<<<< Density ab        0.01
                       o<<<<< Spin adapt        0.15
                       o<<<<< Symm adapt        0.00

                       o<<<<< (ab) max sync:      0.00
       1.2184    -100.06041641 -1.10D-13  3.43D-13  3.83D-08 2.4D-06      2.1



          %%%%% MacroIteration   4 %%%%%


          Number of sigma calls:        1
                       o<<<<< (aa):             0.00
                       o<<<<< (bb):             0.00
                       o<<<<< (ab):             0.00
                       o<<<<< (total)           0.00
                       o<<<<< (aa) ff           0.00
                       o<<<<< (aa) gop          0.00
                       o<<<<< (aa) dot          0.00
                       o<<<<< (ab) str          0.00
                       o<<<<< (ab) gath         0.00
                       o<<<<< (ab) dotab        0.00
                       o<<<<< (ab) scat         0.00
                       o<<<<< (ab) sync         0.00
                       o<<<<< Density           0.01
                       o<<<<< Density one       0.00
                       o<<<<< Density two       0.00
                       o<<<<< Density ab        0.01
                       o<<<<< Spin adapt        0.00
                       o<<<<< Symm adapt        0.00

                       o<<<<< (ab) max sync:      0.00

           >>>| Valence CI:           -104.041110041073
           >>>| MCSCF energy:         -100.060416405206
           >>>| Gradient norm:          0.165414726D-03
     --- Warning:   48 Hessian diagonals < 0.05 ---

                              ----- Line search ------

        step       energy         lsg     num-lsg   num-lsh   lsrat    time
      ------- ---------------- --------- --------- --------- ------- --------
       0.0000    -100.06041641 -5.52D-09  0.00D+00  0.00D+00 0.0D+00      2.2

          Number of sigma calls:       12
                       o<<<<< (aa):             0.00
                       o<<<<< (bb):             0.00
                       o<<<<< (ab):             0.04
                       o<<<<< (total)           0.04
                       o<<<<< (aa) ff           0.00
                       o<<<<< (aa) gop          0.00
                       o<<<<< (aa) dot          0.00
                       o<<<<< (ab) str          0.00
                       o<<<<< (ab) gath         0.00
                       o<<<<< (ab) dotab        0.00
                       o<<<<< (ab) scat         0.00
                       o<<<<< (ab) sync         0.00
                       o<<<<< Density           0.00
                       o<<<<< Density one       0.00
                       o<<<<< Density two       0.00
                       o<<<<< Density ab        0.00
                       o<<<<< Spin adapt        0.09
                       o<<<<< Symm adapt        0.00

                       o<<<<< (ab) max sync:      0.00
       1.0000    -100.06041641 -2.04D-09 -2.04D-09  3.48D-09 3.7D-01      2.4

          Number of sigma calls:       11
                       o<<<<< (aa):             0.00
                       o<<<<< (bb):             0.00
                       o<<<<< (ab):             0.02
                       o<<<<< (total)           0.03
                       o<<<<< (aa) ff           0.00
                       o<<<<< (aa) gop          0.00
                       o<<<<< (aa) dot          0.00
                       o<<<<< (ab) str          0.00
                       o<<<<< (ab) gath         0.00
                       o<<<<< (ab) dotab        0.00
                       o<<<<< (ab) scat         0.00
                       o<<<<< (ab) sync         0.00
                       o<<<<< Density           0.01
                       o<<<<< Density one       0.00
                       o<<<<< Density two       0.00
                       o<<<<< Density ab        0.01
                       o<<<<< Spin adapt        0.10
                       o<<<<< Symm adapt        0.00

                       o<<<<< (ab) max sync:      0.00
       1.5862    -100.06041641  3.71D-14 -1.07D-12  3.48D-09 6.7D-06      2.5



          %%%%% MacroIteration   5 %%%%%


          Number of sigma calls:        1
                       o<<<<< (aa):             0.00
                       o<<<<< (bb):             0.00
                       o<<<<< (ab):             0.00
                       o<<<<< (total)           0.00
                       o<<<<< (aa) ff           0.00
                       o<<<<< (aa) gop          0.00
                       o<<<<< (aa) dot          0.00
                       o<<<<< (ab) str          0.00
                       o<<<<< (ab) gath         0.00
                       o<<<<< (ab) dotab        0.00
                       o<<<<< (ab) scat         0.00
                       o<<<<< (ab) sync         0.00
                       o<<<<< Density           0.00
                       o<<<<< Density one       0.00
                       o<<<<< Density two       0.00
                       o<<<<< Density ab        0.00
                       o<<<<< Spin adapt        0.00
                       o<<<<< Symm adapt        0.00

                       o<<<<< (ab) max sync:      0.00

           >>>| Valence CI:           -104.041110045453
           >>>| MCSCF energy:         -100.060416409587
           >>>| Gradient norm:          0.227341364D-04




     ==============================
            MCSCF Converged
     ==============================



          Canonical Eigenvalues

              1      
    1  -26.2970
    2   -1.5437
    3   -0.6882
    4   -0.6346
    5   -0.6346
    6   -0.0449
    7   -0.0074
    8   -0.0035
    9    0.3747
   10    0.7742
   11    0.7742
   12    1.0202
   13    1.0202
   14    1.0781
   15    1.7227
   16    2.2602
   17    2.2602
   18    2.3440
   19    2.3440
   20    2.5915
   21    3.4293
   22    3.4293
   23    3.7979
   24    3.7979
   25    3.8941
   26    3.9825
   27    3.9825
   28    4.3364
   29    5.1613
   30    5.1613
   31    6.0866
   32    7.4201
   33    7.4201
   34    7.4292
   35    7.4292
   36    7.7289
   37    7.7289
   38    7.8261
   39    8.8831
   40    8.8831
   41    9.1420
   42    9.1420
   43    9.2385
   44   10.2515


          Converged CI vector

   Index           Coefficient          Config. Occupation
         1         -0.98021860          1  2  3  4  5  1  2  3  4  5
         4         -0.05984195          1  2  3  4  5  1  2  4  5  6
       169         -0.05984195          1  2  4  5  6  1  2  3  4  5
       172          0.15452233          1  2  4  5  6  1  2  4  5  6
       173          0.02791723          1  2  4  5  6  1  3  4  5  6
       178         -0.02578101          1  2  4  5  6  1  3  4  5  7
       228          0.02791723          1  3  4  5  6  1  2  4  5  6
       229          0.02133736          1  3  4  5  6  1  3  4  5  6
       508         -0.02578101          1  3  4  5  7  1  2  4  5  6

          Number of sigma calls:        1
                       o<<<<< (aa):             0.00
                       o<<<<< (bb):             0.00
                       o<<<<< (ab):             0.00
                       o<<<<< (total)           0.00
                       o<<<<< (aa) ff           0.00
                       o<<<<< (aa) gop          0.00
                       o<<<<< (aa) dot          0.00
                       o<<<<< (ab) str          0.00
                       o<<<<< (ab) gath         0.00
                       o<<<<< (ab) dotab        0.00
                       o<<<<< (ab) scat         0.00
                       o<<<<< (ab) sync         0.00
                       o<<<<< Density           0.01
                       o<<<<< Density one       0.00
                       o<<<<< Density two       0.00
                       o<<<<< Density ab        0.01
                       o<<<<< Spin adapt        0.00
                       o<<<<< Symm adapt        0.00

                       o<<<<< (ab) max sync:      0.00



          Natural orbital occupation numbers

              1      
    1    2.0000
    2    1.9992
    3    1.9992
    4    1.9944
    5    1.9421
    6    0.0581
    7    0.0049
    8    0.0022


          Number of sigma calls:       21
                       o<<<<< (aa):             0.00
                       o<<<<< (bb):             0.01
                       o<<<<< (ab):             0.07
                       o<<<<< (total)           0.07
                       o<<<<< (aa) ff           0.00
                       o<<<<< (aa) gop          0.00
                       o<<<<< (aa) dot          0.00
                       o<<<<< (ab) str          0.00
                       o<<<<< (ab) gath         0.00
                       o<<<<< (ab) dotab        0.00
                       o<<<<< (ab) scat         0.00
                       o<<<<< (ab) sync         0.00
                       o<<<<< Density           0.01
                       o<<<<< Density one       0.00
                       o<<<<< Density two       0.00
                       o<<<<< Density ab        0.01
                       o<<<<< Spin adapt        0.16
                       o<<<<< Symm adapt        0.00

                       o<<<<< (ab) max sync:      0.00


       Final MCSCF results 
       ------------------- 

       Total MCSCF energy =   -100.060416409587
            Gradient norm =      2.3D-05

    CPU time for solution =      2.9s
   Wall time for solution =      4.8s



                        Analysis of MCSCF natural orbitals
                        ----------------------------------

 Vector    1  Occ=1.999980D+00  E=-2.629696D+01  Symmetry=a
              MO Center=  1.4D-13, -1.2D-01,  2.7D-13, r^2= 1.2D-02
   Bfn.  Coefficient  Atom+Function         Bfn.  Coefficient  Atom+Function  
  ----- ------------  ---------------      ----- ------------  ---------------
     1      0.975925  1 F  s          

 Vector    2  Occ=1.999191D+00  E=-1.543652D+00  Symmetry=a
              MO Center=  2.1D-15, -1.1D-01,  2.2D-13, r^2= 4.6D-01
   Bfn.  Coefficient  Atom+Function         Bfn.  Coefficient  Atom+Function  
  ----- ------------  ---------------      ----- ------------  ---------------
    10      0.469624  1 F  pz                 7      0.385821  1 F  pz         
    13      0.358602  1 F  pz         

 Vector    3  Occ=1.999191D+00  E=-6.882138D-01  Symmetry=a
              MO Center=  3.6D-13, -1.1D-01, -3.4D-15, r^2= 4.6D-01
   Bfn.  Coefficient  Atom+Function         Bfn.  Coefficient  Atom+Function  
  ----- ------------  ---------------      ----- ------------  ---------------
     8      0.469624  1 F  px                 5      0.385821  1 F  px         
    11      0.358602  1 F  px         

 Vector    4  Occ=1.994447D+00  E=-6.346061D-01  Symmetry=a
              MO Center= -4.9D-13, -1.8D-01, -4.3D-13, r^2= 3.5D-01
   Bfn.  Coefficient  Atom+Function         Bfn.  Coefficient  Atom+Function  
  ----- ------------  ---------------      ----- ------------  ---------------
     2      0.567034  1 F  s                  4      0.382596  1 F  s          
     3      0.167618  1 F  s          

 Vector    5  Occ=1.942073D+00  E=-6.346061D-01  Symmetry=a
              MO Center= -5.1D-14,  2.8D-01, -7.2D-14, r^2= 7.0D-01
   Bfn.  Coefficient  Atom+Function         Bfn.  Coefficient  Atom+Function  
  ----- ------------  ---------------      ----- ------------  ---------------
     9      0.375595  1 F  py                 6      0.304868  1 F  py         
    32      0.267329  2 H  s                 12      0.247643  1 F  py         
    31      0.154145  2 H  s          

 Vector    6  Occ=5.807087D-02  E=-4.490734D-02  Symmetry=a
              MO Center= -2.6D-15,  6.3D-01, -2.0D-15, r^2= 7.2D-01
   Bfn.  Coefficient  Atom+Function         Bfn.  Coefficient  Atom+Function  
  ----- ------------  ---------------      ----- ------------  ---------------
    32      0.589154  2 H  s                  9     -0.441286  1 F  py         
     6     -0.410596  1 F  py                31      0.273386  2 H  s          
     4     -0.194480  1 F  s          

 Vector    7  Occ=4.865558D-03  E=-7.439367D-03  Symmetry=a
              MO Center=  2.6D-14, -3.3D-01, -1.7D-15, r^2= 7.7D-01
   Bfn.  Coefficient  Atom+Function         Bfn.  Coefficient  Atom+Function  
  ----- ------------  ---------------      ----- ------------  ---------------
     4      1.291736  1 F  s                  3     -0.765599  1 F  s          
     2     -0.679065  1 F  s                 12     -0.240756  1 F  py         
     6      0.191087  1 F  py         

 Vector    8  Occ=2.182811D-03  E=-3.541418D-03  Symmetry=a
              MO Center= -4.5D-15, -1.9D-01,  6.5D-15, r^2= 4.6D-01
   Bfn.  Coefficient  Atom+Function         Bfn.  Coefficient  Atom+Function  
  ----- ------------  ---------------      ----- ------------  ---------------
    23      0.598109  1 F  d  2              21      0.345315  1 F  d  0       
    18      0.338894  1 F  d  2               6     -0.219735  1 F  py         
    12      0.198855  1 F  py                16      0.195658  1 F  d  0       

 Vector    9  Occ=0.000000D+00  E= 3.746534D-01  Symmetry=a
              MO Center=  6.8D-15,  1.4D+00,  7.4D-15, r^2= 3.3D+00
   Bfn.  Coefficient  Atom+Function         Bfn.  Coefficient  Atom+Function  
  ----- ------------  ---------------      ----- ------------  ---------------
    33      1.802833  2 H  s                  4     -0.915812  1 F  s          
    32     -0.849495  2 H  s                 12     -0.334220  1 F  py         
     2      0.291460  1 F  s                 38     -0.182272  2 H  py         

 Vector   10  Occ=0.000000D+00  E= 7.741504D-01  Symmetry=a
              MO Center=  4.7D-15,  9.6D-01,  4.7D-18, r^2= 1.1D+00
   Bfn.  Coefficient  Atom+Function         Bfn.  Coefficient  Atom+Function  
  ----- ------------  ---------------      ----- ------------  ---------------
    37      0.964606  2 H  px                 8     -0.332625  1 F  px         
    11      0.195770  1 F  px         

 Vector   11  Occ=0.000000D+00  E= 7.741504D-01  Symmetry=a
              MO Center=  3.5D-16,  9.6D-01,  3.5D-15, r^2= 1.1D+00
   Bfn.  Coefficient  Atom+Function         Bfn.  Coefficient  Atom+Function  
  ----- ------------  ---------------      ----- ------------  ---------------
    39      0.964606  2 H  pz                10     -0.332625  1 F  pz         
    13      0.195770  1 F  pz         

 Vector   12  Occ=0.000000D+00  E= 1.020158D+00  Symmetry=a
              MO Center= -6.9D-15, -1.1D-01, -1.3D-16, r^2= 1.6D+00
   Bfn.  Coefficient  Atom+Function         Bfn.  Coefficient  Atom+Function  
  ----- ------------  ---------------      ----- ------------  ---------------
    11      1.299797  1 F  px                 8     -0.667794  1 F  px         
    37     -0.645088  2 H  px                 5     -0.211052  1 F  px         

 Vector   13  Occ=0.000000D+00  E= 1.020158D+00  Symmetry=a
              MO Center=  1.1D-16, -1.1D-01, -1.1D-14, r^2= 1.6D+00
   Bfn.  Coefficient  Atom+Function         Bfn.  Coefficient  Atom+Function  
  ----- ------------  ---------------      ----- ------------  ---------------
    13      1.299797  1 F  pz                10     -0.667794  1 F  pz         
    39     -0.645088  2 H  pz                 7     -0.211052  1 F  pz         

 Vector   14  Occ=0.000000D+00  E= 1.078064D+00  Symmetry=a
              MO Center=  6.5D-15,  1.0D+00,  9.9D-15, r^2= 1.5D+00
   Bfn.  Coefficient  Atom+Function         Bfn.  Coefficient  Atom+Function  
  ----- ------------  ---------------      ----- ------------  ---------------
    38      1.107508  2 H  py                32      0.574141  2 H  s          
    12     -0.543843  1 F  py                 9      0.496840  1 F  py         
    33     -0.488925  2 H  s                  4      0.430313  1 F  s          

 Vector   15  Occ=0.000000D+00  E= 1.722707D+00  Symmetry=a
              MO Center=  9.1D-16, -6.3D-02,  5.5D-16, r^2= 2.4D+00
   Bfn.  Coefficient  Atom+Function         Bfn.  Coefficient  Atom+Function  
  ----- ------------  ---------------      ----- ------------  ---------------
     4      3.401272  1 F  s                 12      2.711423  1 F  py         
    32     -2.644481  2 H  s                 38      2.335387  2 H  py         
     2     -0.769523  1 F  s                 23     -0.647249  1 F  d  2       
    33     -0.441734  2 H  s                 21     -0.373681  1 F  d  0       
     1     -0.321227  1 F  s                  3     -0.252853  1 F  s          

 Vector   16  Occ=0.000000D+00  E= 2.260231D+00  Symmetry=a
              MO Center=  1.9D-15, -8.1D-02,  2.2D-15, r^2= 6.1D-01
   Bfn.  Coefficient  Atom+Function         Bfn.  Coefficient  Atom+Function  
  ----- ------------  ---------------      ----- ------------  ---------------
    22      0.985707  1 F  d  1       

 Vector   17  Occ=0.000000D+00  E= 2.260231D+00  Symmetry=a
              MO Center=  2.1D-15, -8.1D-02,  2.7D-15, r^2= 6.1D-01
   Bfn.  Coefficient  Atom+Function         Bfn.  Coefficient  Atom+Function  
  ----- ------------  ---------------      ----- ------------  ---------------
    21      0.853652  1 F  d  0              23     -0.492845  1 F  d  2       

 Vector   18  Occ=0.000000D+00  E= 2.344029D+00  Symmetry=a
              MO Center=  4.3D-16,  1.6D-01,  1.9D-15, r^2= 8.4D-01
   Bfn.  Coefficient  Atom+Function         Bfn.  Coefficient  Atom+Function  
  ----- ------------  ---------------      ----- ------------  ---------------
    20      0.923804  1 F  d -1              39     -0.395686  2 H  pz         
    41     -0.246140  2 H  d -1              13      0.166281  1 F  pz         


 Wrote Lagrangian and 1- and 2-particle density matrices to ./HF.mcpdm


     Multipole analysis of the density
     ---------------------------------

     L   x y z        total        nuclear
     -   - - -        -----        -------
     0   0 0 0     -0.000000     10.000000

     1   1 0 0      0.000000      0.000000
     1   0 1 0      0.814441      0.000000
     1   0 0 1      0.000000      0.000000

     2   2 0 0     -4.290598      0.000000
     2   1 1 0     -0.000000      0.000000
     2   1 0 1     -0.000000      0.000000
     2   0 2 0     -2.102301      4.600553
     2   0 1 1      0.000000      0.000000
     2   0 0 2     -4.290598      0.000000


  Mulliken analysis of the total density
  --------------------------------------

    Atom       Charge   Shell Charges
 -----------   ------   -------------------------------------------------------
    1 F    9     9.33   1.95  1.07  0.27  0.66  1.52  2.38  1.47  0.00  0.01  0.00
    2 H    1     0.67   0.17  0.37  0.07  0.01  0.04  0.01

    Mulliken analysis of the active space density
    ---------------------------------------------

    Atom       Charge   Shell Charges
 -----------   ------   -------------------------------------------------------
    1 F    9     9.33   1.95  1.07  0.27  0.66  1.52  2.38  1.47  0.00  0.01  0.00
    2 H    1     0.67   0.17  0.37  0.07  0.01  0.04  0.01

 Parallel integral file used       3 records with       0 large values


 Task  times  cpu:        2.9s     wall:        4.8s


                                NWChem Input Module
                                -------------------


                                 NWChem SCF Module
                                 -----------------


                                        HF



  ao basis        = "ao basis"
  functions       =    44
  atoms           =     2
  closed shells   =     5
  open shells     =     0
  charge          =   0.00
  wavefunction    = RHF 
  input vectors   = ./HF.mos
  output vectors  = ./HF-trash.mos
  use symmetry    = F
  symmetry adapt  = F


 Summary of "ao basis" -> "ao basis" (spherical)
 ------------------------------------------------------------------------------
       Tag                 Description            Shells   Functions and Types
 ---------------- ------------------------------  ------  ---------------------
 F                          cc-pVTZ                 10       30   4s3p2d1f
 H                          cc-pVTZ                  6       14   3s2p1d



 Forming initial guess at       4.8s


 Loading old vectors from job with title :

HF


 Starting SCF solution at       4.8s



 ----------------------------------------------
         Quadratically convergent ROHF

 Convergence threshold     :          1.000E-04
 Maximum no. of iterations :           30
 Final Fock-matrix accuracy:          1.000E-07
 ----------------------------------------------


 Integral file          = ./HF.aoints.0
 Record size in doubles =  65536        No. of integs per rec  =  43688
 Max. records in memory =     18        Max. records in file   = 250987
 No. of bits per label  =      8        No. of bits per value  =     64


 #quartets = 9.316D+03 #integrals = 1.251D+05 #direct =  0.0% #cached =100.0%



       Final RHF  results 
       ------------------ 

         Total SCF energy =    -99.994900742995
      One-electron energy =   -148.451263275815
      Two-electron energy =     44.475668896955
 Nuclear repulsion energy =      3.980693635866

        Time for solution =      0.0s


             Final eigenvalues
             -----------------

              1      
    1  -26.2970
    2   -1.5437
    3   -0.6882
    4   -0.6346
    5   -0.6346
    6   -0.0449
    7   -0.0074
    8   -0.0035
    9    0.3747
   10    0.7742
   11    0.7742
   12    1.0202
   13    1.0202
   14    1.0781
   15    1.7227

                       ROHF Final Molecular Orbital Analysis
                       -------------------------------------

 Vector    2  Occ=2.000000D+00  E=-1.543652D+00
              MO Center=  2.1D-15, -1.1D-01,  2.2D-13, r^2= 4.6D-01
   Bfn.  Coefficient  Atom+Function         Bfn.  Coefficient  Atom+Function  
  ----- ------------  ---------------      ----- ------------  ---------------
    10      0.469624  1 F  pz                 7      0.385821  1 F  pz         
    13      0.358602  1 F  pz         

 Vector    3  Occ=2.000000D+00  E=-6.882138D-01
              MO Center=  3.6D-13, -1.1D-01, -3.4D-15, r^2= 4.6D-01
   Bfn.  Coefficient  Atom+Function         Bfn.  Coefficient  Atom+Function  
  ----- ------------  ---------------      ----- ------------  ---------------
     8      0.469624  1 F  px                 5      0.385821  1 F  px         
    11      0.358602  1 F  px         

 Vector    4  Occ=2.000000D+00  E=-6.346061D-01
              MO Center= -4.9D-13, -1.8D-01, -4.3D-13, r^2= 3.5D-01
   Bfn.  Coefficient  Atom+Function         Bfn.  Coefficient  Atom+Function  
  ----- ------------  ---------------      ----- ------------  ---------------
     2      0.567034  1 F  s                  4      0.382596  1 F  s          
     3      0.167618  1 F  s          

 Vector    5  Occ=2.000000D+00  E=-6.346061D-01
              MO Center= -5.1D-14,  2.8D-01, -7.2D-14, r^2= 7.0D-01
   Bfn.  Coefficient  Atom+Function         Bfn.  Coefficient  Atom+Function  
  ----- ------------  ---------------      ----- ------------  ---------------
     9      0.375595  1 F  py                 6      0.304868  1 F  py         
    32      0.267329  2 H  s                 12      0.247643  1 F  py         
    31      0.154145  2 H  s          

 Vector    6  Occ=0.000000D+00  E=-4.490734D-02
              MO Center= -2.6D-15,  6.3D-01, -2.0D-15, r^2= 7.2D-01
   Bfn.  Coefficient  Atom+Function         Bfn.  Coefficient  Atom+Function  
  ----- ------------  ---------------      ----- ------------  ---------------
    32      0.589154  2 H  s                  9     -0.441286  1 F  py         
     6     -0.410596  1 F  py                31      0.273386  2 H  s          
     4     -0.194480  1 F  s          

 Vector    7  Occ=0.000000D+00  E=-7.439367D-03
              MO Center=  2.6D-14, -3.3D-01, -1.7D-15, r^2= 7.7D-01
   Bfn.  Coefficient  Atom+Function         Bfn.  Coefficient  Atom+Function  
  ----- ------------  ---------------      ----- ------------  ---------------
     4      1.291736  1 F  s                  3     -0.765599  1 F  s          
     2     -0.679065  1 F  s                 12     -0.240756  1 F  py         
     6      0.191087  1 F  py         

 Vector    8  Occ=0.000000D+00  E=-3.541418D-03
              MO Center= -4.5D-15, -1.9D-01,  6.5D-15, r^2= 4.6D-01
   Bfn.  Coefficient  Atom+Function         Bfn.  Coefficient  Atom+Function  
  ----- ------------  ---------------      ----- ------------  ---------------
    23      0.598109  1 F  d  2              21      0.345315  1 F  d  0       
    18      0.338894  1 F  d  2               6     -0.219735  1 F  py         
    12      0.198855  1 F  py                16      0.195658  1 F  d  0       

 Vector    9  Occ=0.000000D+00  E= 3.746534D-01
              MO Center=  6.8D-15,  1.4D+00,  7.4D-15, r^2= 3.3D+00
   Bfn.  Coefficient  Atom+Function         Bfn.  Coefficient  Atom+Function  
  ----- ------------  ---------------      ----- ------------  ---------------
    33      1.802833  2 H  s                  4     -0.915812  1 F  s          
    32     -0.849495  2 H  s                 12     -0.334220  1 F  py         
     2      0.291460  1 F  s                 38     -0.182272  2 H  py         

 Vector   10  Occ=0.000000D+00  E= 7.741504D-01
              MO Center=  4.7D-15,  9.6D-01,  4.7D-18, r^2= 1.1D+00
   Bfn.  Coefficient  Atom+Function         Bfn.  Coefficient  Atom+Function  
  ----- ------------  ---------------      ----- ------------  ---------------
    37      0.964606  2 H  px                 8     -0.332625  1 F  px         
    11      0.195770  1 F  px         

 Vector   11  Occ=0.000000D+00  E= 7.741504D-01
              MO Center=  3.5D-16,  9.6D-01,  3.5D-15, r^2= 1.1D+00
   Bfn.  Coefficient  Atom+Function         Bfn.  Coefficient  Atom+Function  
  ----- ------------  ---------------      ----- ------------  ---------------
    39      0.964606  2 H  pz                10     -0.332625  1 F  pz         
    13      0.195770  1 F  pz         

 Vector   12  Occ=0.000000D+00  E= 1.020158D+00
              MO Center= -6.9D-15, -1.1D-01, -1.3D-16, r^2= 1.6D+00
   Bfn.  Coefficient  Atom+Function         Bfn.  Coefficient  Atom+Function  
  ----- ------------  ---------------      ----- ------------  ---------------
    11      1.299797  1 F  px                 8     -0.667794  1 F  px         
    37     -0.645088  2 H  px                 5     -0.211052  1 F  px         

 Vector   13  Occ=0.000000D+00  E= 1.020158D+00
              MO Center=  1.1D-16, -1.1D-01, -1.1D-14, r^2= 1.6D+00
   Bfn.  Coefficient  Atom+Function         Bfn.  Coefficient  Atom+Function  
  ----- ------------  ---------------      ----- ------------  ---------------
    13      1.299797  1 F  pz                10     -0.667794  1 F  pz         
    39     -0.645088  2 H  pz                 7     -0.211052  1 F  pz         

 Vector   14  Occ=0.000000D+00  E= 1.078064D+00
              MO Center=  6.5D-15,  1.0D+00,  9.9D-15, r^2= 1.5D+00
   Bfn.  Coefficient  Atom+Function         Bfn.  Coefficient  Atom+Function  
  ----- ------------  ---------------      ----- ------------  ---------------
    38      1.107508  2 H  py                32      0.574141  2 H  s          
    12     -0.543843  1 F  py                 9      0.496840  1 F  py         
    33     -0.488925  2 H  s                  4      0.430313  1 F  s          

 Vector   15  Occ=0.000000D+00  E= 1.722707D+00
              MO Center=  9.1D-16, -6.3D-02,  5.5D-16, r^2= 2.4D+00
   Bfn.  Coefficient  Atom+Function         Bfn.  Coefficient  Atom+Function  
  ----- ------------  ---------------      ----- ------------  ---------------
     4      3.401272  1 F  s                 12      2.711423  1 F  py         
    32     -2.644481  2 H  s                 38      2.335387  2 H  py         
     2     -0.769523  1 F  s                 23     -0.647249  1 F  d  2       
    33     -0.441734  2 H  s                 21     -0.373681  1 F  d  0       
     1     -0.321227  1 F  s                  3     -0.252853  1 F  s          


 center of mass
 --------------
 x =   0.00000000 y =  -0.11219649 z =   0.00000000

 moments of inertia (a.u.)
 ------------------
           4.892203517903           0.000000000000           0.000000000000
           0.000000000000           0.000000000000           0.000000000000
           0.000000000000           0.000000000000           4.892203517903

  Mulliken analysis of the total density
  --------------------------------------

    Atom       Charge   Shell Charges
 -----------   ------   -------------------------------------------------------
    1 F    9     9.34   1.95  1.07  0.27  0.66  1.51  2.39  1.48  0.00  0.01  0.00
    2 H    1     0.66   0.17  0.36  0.07  0.01  0.04  0.01

       Multipole analysis of the density wrt the origin
       ------------------------------------------------

     L   x y z        total         open         nuclear
     -   - - -        -----         ----         -------
     0   0 0 0     -0.000000      0.000000     10.000000

     1   1 0 0      0.000000      0.000000      0.000000
     1   0 1 0      0.851128      0.000000      0.000000
     1   0 0 1      0.000000      0.000000      0.000000

     2   2 0 0     -4.288250      0.000000      0.000000
     2   1 1 0     -0.000000      0.000000      0.000000
     2   1 0 1     -0.000000      0.000000      0.000000
     2   0 2 0     -2.026878      0.000000      4.600553
     2   0 1 1      0.000000      0.000000      0.000000
     2   0 0 2     -4.288250      0.000000      0.000000


 Parallel integral file used       3 records with       0 large values

 ------------------------------------
     Number of active orbitals      8
     Number of active alpha electrons      5
     Number of active beta electrons       5
 ------------------------------------
                   NWChem Extensible Many-Electron Theory Module
                   ---------------------------------------------

              ======================================================
                   This portion of the program was automatically
                  generated by a Tensor Contraction Engine (TCE).
                  The development of this portion of the program
                 and TCE was supported by US Department of Energy,
                Office of Science, Office of Basic Energy Science.
                      TCE is a product of Battelle and PNNL.
              Please cite: S.Hirata, J.Phys.Chem.A 107, 9887 (2003).
              ======================================================

                                        HF


            General Information
            -------------------
      Number of processors :     1
         Wavefunction type : Restricted Hartree-Fock
          No. of electrons :    10
           Alpha electrons :     5
            Beta electrons :     5
           No. of orbitals :    88
            Alpha orbitals :    44
             Beta orbitals :    44
        Alpha frozen cores :     0
         Beta frozen cores :     0
     Alpha frozen virtuals :    36
      Beta frozen virtuals :    36
         Spin multiplicity : singlet 
    Number of AO functions :    44
       Number of AO shells :    16
        Use of symmetry is : off
      Symmetry adaption is : off
         Schwarz screening : 0.10D-09

          Correlation Information
          -----------------------
          Calculation type : Coupled-cluster singles & doubles                           
   Perturbative correction : none                                                        
            Max iterations :      500
        Residual threshold : 0.10D-06
     T(0) DIIS level shift : 0.00D+00
     L(0) DIIS level shift : 0.00D+00
     T(1) DIIS level shift : 0.00D+00
     L(1) DIIS level shift : 0.00D+00
     T(R) DIIS level shift : 0.00D+00
     T(I) DIIS level shift : 0.00D+00
   CC-T/L Amplitude update :  5-th order DIIS
                I/O scheme : Global Array Library
        L-threshold :  0.10D-06
        EOM-threshold :  0.10D-06
 no EOMCCSD initial starts read in
 TCE RESTART OPTIONS
 READ_INT:   F
 WRITE_INT:  F
 READ_TA:    F
 WRITE_TA:   F
 READ_XA:    F
 WRITE_XA:   F
 READ_IN3:   F
 WRITE_IN3:  F
 SLICE:      F
 D4D5:       F
 quantumc:   T
 qrotation:  F
 pwtce:      F
 qducc:      F
 nacto:                         0
 nrotv:                         0
 nrot:                          0

            Memory Information
            ------------------
          Available GA space size is    1610610800 doubles
          Available MA space size is    1610610316 doubles

 Maximum block size supplied by input
 Maximum block size         1 doubles

 tile_dim =      1

 Block   Spin    Irrep     Size     Offset   Alpha
 -------------------------------------------------
   1    alpha     a      1 doubles       0       1
   2    alpha     a      1 doubles       1       2
   3    alpha     a      1 doubles       2       3
   4    alpha     a      1 doubles       3       4
   5    alpha     a      1 doubles       4       5
   6    beta      a      1 doubles       5       1
   7    beta      a      1 doubles       6       2
   8    beta      a      1 doubles       7       3
   9    beta      a      1 doubles       8       4
  10    beta      a      1 doubles       9       5
  11    alpha     a      1 doubles      10      11
  12    alpha     a      1 doubles      11      12
  13    alpha     a      1 doubles      12      13
  14    beta      a      1 doubles      13      11
  15    beta      a      1 doubles      14      12
  16    beta      a      1 doubles      15      13

 Global array virtual files algorithm will be used

 Parallel file system coherency ......... OK

 Integral file          = ./HF.aoints.0
 Record size in doubles =  65536        No. of integs per rec  =  43688
 Max. records in memory =     18        Max. records in file   = 250987
 No. of bits per label  =      8        No. of bits per value  =     64


 #quartets = 9.316D+03 #integrals = 1.251D+05 #direct =  0.0% #cached =100.0%


 Fock matrix recomputed
 1-e file size   =               64
 1-e file name   = ./HF.f1
 Cpu & wall time / sec            0.0            0.1
 4-electron integrals stored in orbital form

 v2    file size   =              666
 4-index algorithm nr.  13 is used
 imaxsize =       30
 imaxsize ichop =        0
 begin_one_electron_integrals
    1    1       -40.8617469424
    2    1         0.0000000002
    4    1         0.7044943498
    5    1        -0.0005121094
    6    1        -0.1488597046
    7    1        -0.7354637654
    8    1         0.0994547614
    1    2         0.0000000002
    2    2        -8.3766616246
    3    3        -8.3766617068
    1    4         0.7044943498
    4    4        -9.3123609870
    5    4        -0.0040546786
    6    4         0.3646007696
    7    4         2.1608020082
    8    4        -0.2272858138
    1    5        -0.0005121094
    4    5        -0.0040546786
    5    5        -7.2982003771
    6    5         2.5307158662
    7    5        -0.5487957846
    8    5         0.7062003764
    1    6        -0.1488597046
    4    6         0.3646007696
    5    6         2.5307158662
    6    6        -6.4272681689
    7    6        -0.0146987530
    8    6        -0.2332085078
    1    7        -0.7354637654
    4    7         2.1608020082
    5    7        -0.5487957846
    6    7        -0.0146987530
    7    7        -5.7454705770
    8    7         0.1472032132
    1    8         0.0994547614
    4    8        -0.2272858138
    5    8         0.7062003764
    6    8        -0.2332085078
    7    8         0.1472032132
    8    8        -4.9573995518
 end_one_electron_integrals
 begin_two_electron_integrals
    1    1    1    1        5.3597051757
    2    1    2    1        0.0393786026
    3    1    3    1        0.0393786037
    4    1    1    1       -0.5324979401
    4    1    4    1        0.0866731771
    4    1    2    2       -0.0154707858
    4    1    3    3       -0.0154707862
    5    1    1    1       -0.0062124935
    5    1    4    1       -0.0022578701
    5    1    5    1        0.0251718312
    5    1    2    2        0.0002910913
    5    1    3    3        0.0002910913
    5    1    4    4       -0.0065555631
    6    1    1    1        0.1125988316
    6    1    4    1       -0.0144622205
    6    1    5    1       -0.0308585514
    6    1    6    1        0.0413140337
    6    1    2    2        0.0023901190
    6    1    3    3        0.0023901176
    6    1    4    4        0.0122565056
    6    1    5    4       -0.0315391922
    6    1    5    5       -0.0040815995
    7    1    1    1        0.5819493013
    7    1    4    1       -0.0993063830
    7    1    5    1        0.0103955053
    7    1    6    1        0.0068329867
    7    1    7    1        0.1170627795
    7    1    2    2        0.0143939284
    7    1    3    3        0.0143939209
    7    1    4    4        0.0209373366
    7    1    5    4        0.0098090121
    7    1    6    4       -0.0131329791
    7    1    5    5        0.0095016538
    7    1    6    5       -0.0100961676
    7    1    6    6        0.0170470825
    8    1    1    1       -0.0764451802
    8    1    4    1        0.0149577953
    8    1    5    1       -0.0126209711
    8    1    6    1        0.0126248196
    8    1    7    1       -0.0207295978
    8    1    8    1        0.0110342044
    8    1    2    2        0.0023303537
    8    1    3    3        0.0023304237
    8    1    4    4       -0.0004251973
    8    1    5    4       -0.0110274061
    8    1    6    4        0.0093915865
    8    1    7    4        0.0019660224
    8    1    5    5       -0.0089674155
    8    1    6    5        0.0068216814
    8    1    7    5        0.0065446068
    8    1    6    6       -0.0121376479
    8    1    7    6       -0.0084990917
    8    1    7    7       -0.0000922015
    2    2    1    1        1.2235382913
    2    2    2    2        0.8899863779
    3    2    3    2        0.0436223298
    4    2    2    1        0.0402172737
    4    2    4    2        0.1716353611
    5    2    2    1        0.0010689780
    5    2    4    2        0.0044315067
    5    2    5    2        0.0331626795
    6    2    2    1       -0.0075605222
    6    2    4    2       -0.0229894873
    6    2    5    2       -0.0217432667
    6    2    6    2        0.0243982173
    7    2    2    1       -0.0201653814
    7    2    4    2       -0.0187407766
    7    2    5    2        0.0028817049
    7    2    6    2        0.0046685824
    7    2    7    2        0.0460828955
    8    2    2    1        0.0186626609
    8    2    4    2        0.0743108991
    8    2    5    2        0.0006841065
    8    2    6    2       -0.0099382236
    8    2    7    2       -0.0065266501
    8    2    8    2        0.0529556617
    3    3    1    1        1.2235383090
    3    3    2    2        0.8027417271
    3    3    3    3        0.8899863954
    4    3    3    1        0.0402172749
    4    3    4    3        0.1716353646
    5    3    3    1        0.0010689781
    5    3    4    3        0.0044315070
    5    3    5    3        0.0331626795
    6    3    3    1       -0.0075605285
    6    3    4    3       -0.0229895160
    6    3    5    3       -0.0217432678
    6    3    6    3        0.0243982252
    7    3    3    1       -0.0201654134
    7    3    4    3       -0.0187409145
    7    3    5    3        0.0028817006
    7    3    6    3        0.0046686029
    7    3    7    3        0.0460829143
    8    3    3    1        0.0186629400
    8    3    4    3        0.0743121117
    8    3    5    3        0.0006841626
    8    3    6    3       -0.0099384206
    8    3    7    3       -0.0065267967
    8    3    8    3        0.0529568205
    4    4    1    1        1.2824108318
    4    4    4    1       -0.0223498504
    4    4    2    2        0.8614450346
    4    4    3    3        0.8614450434
    4    4    4    4        0.9063206668
    5    4    1    1       -0.0394667118
    5    4    4    1       -0.0023808475
    5    4    5    1        0.0269439130
    5    4    2    2       -0.0123363947
    5    4    3    3       -0.0123363945
    5    4    4    4       -0.0450651236
    5    4    5    4        0.1280946990
    6    4    1    1       -0.0776920779
    6    4    4    1        0.0063213688
    6    4    5    1       -0.0231534323
    6    4    6    1        0.0264076419
    6    4    2    2       -0.0402526142
    6    4    3    3       -0.0402526277
    6    4    4    4       -0.0162059942
    6    4    5    4       -0.0823407041
    6    4    6    4        0.0712392742
    6    4    5    5       -0.0304371463
    7    4    1    1       -0.5591563231
    7    4    4    1        0.0265032438
    7    4    5    1        0.0072382202
    7    4    6    1       -0.0139634741
    7    4    7    1       -0.0249861779
    7    4    2    2       -0.1816584993
    7    4    3    3       -0.1816585643
    7    4    4    4       -0.2017721326
    7    4    5    4        0.0207321439
    7    4    6    4        0.0021470780
    7    4    7    4        0.1320432610
    7    4    5    5       -0.1408017746
    7    4    6    5        0.1155183604
    7    4    6    6       -0.1429487955
    8    4    1    1        0.0704586415
    8    4    4    1       -0.0040946798
    8    4    5    1       -0.0021219186
    8    4    6    1        0.0029350672
    8    4    7    1        0.0050013080
    8    4    8    1        0.0073134223
    8    4    2    2        0.0503761743
    8    4    3    3        0.0503767176
    8    4    4    4        0.0165078840
    8    4    5    4        0.0074462574
    8    4    6    4       -0.0147819114
    8    4    7    4       -0.0049281717
    8    4    8    4        0.0800647945
    8    4    5    5       -0.0365328008
    8    4    6    5        0.0159826160
    8    4    7    5        0.0069711479
    8    4    6    6       -0.0217871341
    8    4    7    6       -0.0007531535
    8    4    7    7        0.0034969665
    5    5    1    1        0.9688792131
    5    5    4    1       -0.0105627385
    5    5    5    1        0.0054992846
    5    5    2    2        0.6841114813
    5    5    3    3        0.6841114865
    5    5    4    4        0.7221337742
    5    5    5    4        0.0381116711
    5    5    5    5        0.7160801680
    6    5    1    1       -0.5235984601
    6    5    4    1        0.0121382939
    6    5    5    1       -0.0011392493
    6    5    6    1       -0.0012212008
    6    5    2    2       -0.2391216438
    6    5    3    3       -0.2391216475
    6    5    4    4       -0.2685466384
    6    5    5    4        0.0375732182
    6    5    6    4        0.0212123892
    6    5    5    5       -0.1341018576
    6    5    6    5        0.2333947846
    7    5    1    1        0.1242606766
    7    5    4    1       -0.0018359771
    7    5    5    1       -0.0183542797
    7    5    6    1        0.0224984643
    7    5    7    1       -0.0040851744
    7    5    2    2        0.0452515233
    7    5    3    3        0.0452515242
    7    5    4    4        0.0571237007
    7    5    5    4       -0.0335038425
    7    5    6    4        0.0347391234
    7    5    7    4       -0.0425074116
    7    5    5    5        0.0422604821
    7    5    6    5       -0.0119321872
    7    5    7    5        0.0475639600
    7    5    6    6        0.0388427038
    8    5    1    1       -0.1523369849
    8    5    4    1        0.0075209386
    8    5    5    1       -0.0206120318
    8    5    6    1        0.0229411820
    8    5    7    1       -0.0122435750
    8    5    8    1        0.0110345861
    8    5    2    2       -0.0585284124
    8    5    3    3       -0.0585283975
    8    5    4    4       -0.0395016873
    8    5    5    4       -0.1035594059
    8    5    6    4        0.0706368205
    8    5    7    4        0.0259546010
    8    5    8    4       -0.0059928380
    8    5    5    5       -0.0952041346
    8    5    6    5        0.0126011496
    8    5    7    5        0.0150797213
    8    5    8    5        0.1229313117
    8    5    6    6       -0.1028905447
    8    5    7    6       -0.0479728847
    8    5    7    7       -0.0043710340
    6    6    1    1        0.9830961044
    6    6    4    1       -0.0169582550
    6    6    5    1        0.0106793325
    6    6    6    1       -0.0091509872
    6    6    2    2        0.6367835076
    6    6    3    3        0.6367835164
    6    6    4    4        0.6606651297
    6    6    5    4        0.0567390273
    6    6    6    4       -0.0380663954
    6    6    5    5        0.6951872222
    6    6    6    5       -0.0747869167
    6    6    6    6        0.7340172318
    7    6    1    1       -0.0242197974
    7    6    4    1       -0.0031108946
    7    6    5    1        0.0219757046
    7    6    6    1       -0.0258366800
    7    6    7    1        0.0102968330
    7    6    2    2       -0.0006408010
    7    6    3    3       -0.0006407920
    7    6    4    4       -0.0170356431
    7    6    5    4        0.0632568446
    7    6    6    4       -0.0487338008
    7    6    7    4        0.0208447993
    7    6    5    5        0.0147628388
    7    6    6    5        0.0120030229
    7    6    7    5       -0.0352139014
    7    6    6    6        0.0205915862
    7    6    7    6        0.0459836996
    8    6    1    1        0.0937929699
    8    6    4    1       -0.0073664637
    8    6    5    1        0.0180122462
    8    6    6    1       -0.0199789281
    8    6    7    1        0.0113349246
    8    6    8    1       -0.0108434816
    8    6    2    2        0.0096623351
    8    6    3    3        0.0096622318
    8    6    4    4       -0.0050059603
    8    6    5    4        0.0674470091
    8    6    6    4       -0.0530713012
    8    6    7    4       -0.0121006829
    8    6    8    4       -0.0002920281
    8    6    5    5        0.0305675436
    8    6    6    5       -0.0154695180
    8    6    7    5       -0.0228682207
    8    6    8    5       -0.0760886369
    8    6    6    6        0.0458838382
    8    6    7    6        0.0351362926
    8    6    8    6        0.0624819313
    8    6    7    7       -0.0159196101
    7    7    1    1        1.1682830926
    7    7    4    1       -0.0319973562
    7    7    5    1       -0.0154406396
    7    7    6    1        0.0249423180
    7    7    7    1        0.0283301372
    7    7    2    2        0.7131412299
    7    7    3    3        0.7131412405
    7    7    4    4        0.7532107424
    7    7    5    4       -0.0685123257
    7    7    6    4        0.0120769413
    7    7    7    4       -0.1551762868
    7    7    5    5        0.6057289314
    7    7    6    5       -0.2142403607
    7    7    7    5        0.0524862239
    7    7    6    6        0.5564766289
    7    7    7    6       -0.0336829506
    7    7    7    7        0.6827045292
    8    7    1    1       -0.0409122861
    8    7    4    1        0.0056079377
    8    7    5    1        0.0046980995
    8    7    6    1       -0.0064357821
    8    7    7    1       -0.0054503078
    8    7    8    1       -0.0051027916
    8    7    2    2        0.0056494177
    8    7    3    3        0.0056493615
    8    7    4    4        0.0068356223
    8    7    5    4        0.0226727519
    8    7    6    4       -0.0126787538
    8    7    7    4       -0.0019214077
    8    7    8    4       -0.0066674740
    8    7    5    5        0.0228471085
    8    7    6    5       -0.0103016195
    8    7    7    5        0.0043549858
    8    7    8    5       -0.0235439510
    8    7    6    6        0.0252584730
    8    7    7    6        0.0048584775
    8    7    8    6        0.0156724988
    8    7    7    7       -0.0026810177
    8    7    8    7        0.0321307606
    8    8    1    1        1.0462797992
    8    8    4    1       -0.0066993184
    8    8    5    1        0.0053118326
    8    8    6    1       -0.0048773450
    8    8    7    1        0.0063777429
    8    8    8    1       -0.0069220902
    8    8    2    2        0.7760914815
    8    8    3    3        0.7760921530
    8    8    4    4        0.8302904221
    8    8    5    4       -0.0160512632
    8    8    6    4       -0.0261637698
    8    8    7    4       -0.1556111988
    8    8    8    4       -0.0401308576
    8    8    5    5        0.7167975803
    8    8    6    5       -0.2429004208
    8    8    7    5        0.0274957024
    8    8    8    5       -0.0518465009
    8    8    6    6        0.6478260514
    8    8    7    6        0.0066360189
    8    8    8    6        0.0080201661
    8    8    7    7        0.6922598894
    8    8    8    7        0.0121856287
    8    8    8    8        0.8381586526
 end_two_electron_integrals
 enrep_tce =    3.9806936358660465     
  EHF(A)             =       -99.99490074
  EHF(total)         =       -99.99490074
  Shift (HFtot-HFA)  =         0.00000000
 Cpu & wall time / sec            0.4            0.4
 T1-number-of-tasks                   15

 t1 file size   =               15
 t1 file name   = ./HF.t1
 t1 file handle =       -998
 T2-number-of-boxes                  315

 t2 file size   =              315
 t2 file name   = ./HF.t2
 t2 file handle =       -996
CCSD iterations
 ---------------------------------------------------------
 Iter          Residuum       Correlation     Cpu    Wall 
 ---------------------------------------------------------
NEW TASK SCHEDULING
CCSD_T1_NTS --- OK
CCSD_T2_NTS --- OK
    1   1.0486421028432  -0.1449773667308     1.9     2.5
    2   3.8471859338160   0.1554813311777     1.9     2.5
    3  17.6972533171027  -0.7488931248055     1.8     2.5
    4  58.7255092884040   2.6816423015000     1.9     2.5
    5 443.1658986211155  -6.2772362711440     1.8     2.7
 MICROCYCLE DIIS UPDATE:                    5                    5
    6   0.2432880271384  -0.0686465778806     1.9     2.7
    7   1.2243166618158  -0.0507049985435     1.8     2.5
    8   6.3255824803225  -0.1475020669958     1.7     2.5
    9  30.8181519750849   0.3847587651949     1.9     2.6
   10 198.5036269113742  -2.0378843127459     1.8     2.5
 MICROCYCLE DIIS UPDATE:                   10                    5
   11   0.0237800164030  -0.0656441869233     1.7     2.5
   12   0.1176798753789  -0.0664330803106     1.8     2.5
   13   0.6046141285552  -0.0584386690968     1.8     2.5
   14   3.1365417417655  -0.1041158542082     1.8     2.5
   15  15.8193196410679   0.1409737516196     1.8     2.5
 MICROCYCLE DIIS UPDATE:                   15                    5
   16   0.0090420098932  -0.0652529424316     1.9     2.5
   17   0.0460286452593  -0.0659577959053     1.9     2.5
   18   0.2380865611072  -0.0625342667887     1.8     2.5
   19   1.2358890200188  -0.0806055411151     1.8     2.5
   20   6.3429721628020   0.0140046685739     1.7     2.5
 MICROCYCLE DIIS UPDATE:                   20                    5
   21   0.0018039812439  -0.0654318045972     1.8     2.5
   22   0.0091253545936  -0.0655179903333     1.8     2.5
   23   0.0473655762047  -0.0648734239122     1.8     2.5
   24   0.2462053809208  -0.0683478145167     1.8     2.5
   25   1.2768206408971  -0.0499828920572     1.9     2.5
 MICROCYCLE DIIS UPDATE:                   25                    5
   26   0.0001277571510  -0.0654190030509     1.8     2.5
   27   0.0003889968440  -0.0654257006181     1.7     2.5
   28   0.0019942348403  -0.0654104071433     1.8     2.5
   29   0.0104469350498  -0.0655156013593     1.9     2.5
   30   0.0548992036807  -0.0648765530982     1.9     2.5
 MICROCYCLE DIIS UPDATE:                   30                    5
   31   0.0000147748802  -0.0654250784051     1.8     2.5
   32   0.0000418901513  -0.0654230803405     1.8     2.5
   33   0.0001912589332  -0.0654283566635     1.8     2.5
   34   0.0009082206393  -0.0654072078647     1.7     2.5
   35   0.0043953005638  -0.0654969059344     1.8     2.5
 MICROCYCLE DIIS UPDATE:                   35                    5
   36   0.0000028977413  -0.0654241430595     1.9     2.5
   37   0.0000043578451  -0.0654242171454     1.8     2.5
   38   0.0000193434064  -0.0654241328698     1.9     2.5
   39   0.0000975268127  -0.0654250777420     1.8     2.5
   40   0.0005044553945  -0.0654189229587     1.8     2.5
 MICROCYCLE DIIS UPDATE:                   40                    5
   41   0.0000004762372  -0.0654242634227     1.8     2.5
   42   0.0000012319419  -0.0654241980053     1.8     2.5
   43   0.0000048812049  -0.0654243493383     1.8     2.5
   44   0.0000202469274  -0.0654238244818     1.8     2.5
   45   0.0000859884557  -0.0654257476563     1.7     2.5
 MICROCYCLE DIIS UPDATE:                   45                    5
   46   0.0000000868401  -0.0654242319517     1.7     2.5
 -----------------------------------------------------------------
 Iterations converged
 CCSD correlation energy / hartree =        -0.065424231951728
 CCSD total energy / hartree       =      -100.060324974946539

 Singles contributions

 Doubles contributions
     6a   (alpha)     6a   (beta ) ---     5a   (alpha)     5a   (beta )       -0.1658675203
     6a   (alpha)     7a   (beta ) ---     5a   (alpha)     4a   (beta )       -0.0289234306
     7a   (alpha)     6a   (beta ) ---     4a   (alpha)     5a   (beta )       -0.0289234306
     7a   (alpha)     7a   (beta ) ---     4a   (alpha)     4a   (beta )       -0.0229710551
 Ground state specification:
 exp(T)|Ref>~(1+T)|Ref>
 ------- a(p)+/a(q) strings ----------

 singles norm

 doubles norm

 Reference string
  0.98652147018211878      :(1a)+ (2a)+ (3a)+ (4a)+ (5a)+ (1b)+ (2b)+ (3b)+ (4b)+ (5b)+ |0>

 Singles strings

 Doubles strings
 -0.16363186996948603      :(6a)+ (6b)+ (5b)  (5a)  (1a)+ (2a)+ (3a)+ (4a)+ (5a)+ (1b)+ (2b)+ (3b)+ (4b)+ (5b)+ |0>
 -------------------------------------

 Parallel integral file used       3 records with       0 large values


 Task  times  cpu:       84.2s     wall:      117.1s


                                NWChem Input Module
                                -------------------


 Summary of allocated global arrays
-----------------------------------
  No active global arrays


MA_summarize_allocated_blocks: starting scan ...
MA_summarize_allocated_blocks: scan completed: 0 heap blocks, 0 stack blocks
MA usage statistics:

	allocation statistics:
					      heap	     stack
					      ----	     -----
	current number of blocks	         0	         0
	maximum number of blocks	        18	        42
	current total bytes		         0	         0
	maximum total bytes		   9520896	  26465464
	maximum total K-bytes		      9521	     26466
	maximum total M-bytes		        10	        27


                                     CITATION
                                     --------
                Please cite the following reference when publishing
                           results obtained with NWChem:

          E. Apra, E. J. Bylaska, W. A. de Jong, N. Govind, K. Kowalski,
       T. P. Straatsma, M. Valiev, H. J. J. van Dam, Y. Alexeev, J. Anchell,
       V. Anisimov, F. W. Aquino, R. Atta-Fynn, J. Autschbach, N. P. Bauman,
     J. C. Becca, D. E. Bernholdt, K. Bhaskaran-Nair, S. Bogatko, P. Borowski,
         J. Boschen, J. Brabec, A. Bruner, E. Cauet, Y. Chen, G. N. Chuev,
      C. J. Cramer, J. Daily, M. J. O. Deegan, T. H. Dunning Jr., M. Dupuis,
   K. G. Dyall, G. I. Fann, S. A. Fischer, A. Fonari, H. Fruchtl, L. Gagliardi,
      J. Garza, N. Gawande, S. Ghosh, K. Glaesemann, A. W. Gotz, J. Hammond,
       V. Helms, E. D. Hermes, K. Hirao, S. Hirata, M. Jacquelin, L. Jensen,
   B. G. Johnson, H. Jonsson, R. A. Kendall, M. Klemm, R. Kobayashi, V. Konkov,
      S. Krishnamoorthy, M. Krishnan, Z. Lin, R. D. Lins, R. J. Littlefield,
      A. J. Logsdail, K. Lopata, W. Ma, A. V. Marenich, J. Martin del Campo,
   D. Mejia-Rodriguez, J. E. Moore, J. M. Mullin, T. Nakajima, D. R. Nascimento,
    J. A. Nichols, P. J. Nichols, J. Nieplocha, A. Otero-de-la-Roza, B. Palmer,
    A. Panyala, T. Pirojsirikul, B. Peng, R. Peverati, J. Pittner, L. Pollack,
   R. M. Richard, P. Sadayappan, G. C. Schatz, W. A. Shelton, D. W. Silverstein,
   D. M. A. Smith, T. A. Soares, D. Song, M. Swart, H. L. Taylor, G. S. Thomas,
            V. Tipparaju, D. G. Truhlar, K. Tsemekhman, T. Van Voorhis,
      A. Vazquez-Mayagoitia, P. Verma, O. Villa, A. Vishnu, K. D. Vogiatzis,
        D. Wang, J. H. Weare, M. J. Williamson, T. L. Windus, K. Wolinski,
        A. T. Wong, Q. Wu, C. Yang, Q. Yu, M. Zacharias, Z. Zhang, Y. Zhao,
                                and R. J. Harrison
                        "NWChem: Past, present, and future
                         J. Chem. Phys. 152, 184102 (2020)
                               doi:10.1063/5.0004997

                                      AUTHORS
                                      -------
  E. Apra, E. J. Bylaska, N. Govind, K. Kowalski, M. Valiev, D. Mejia-Rodriguez,
       A. Kunitsa, N. P. Bauman, A. Panyala, W. A. de Jong, T. P. Straatsma,
        H. J. J. van Dam, D. Wang, T. L. Windus, J. Hammond, J. Autschbach,
    K. Bhaskaran-Nair, J. Brabec, K. Lopata, S. A. Fischer, S. Krishnamoorthy,
     M. Jacquelin, W. Ma, M. Klemm, O. Villa, Y. Chen, V. Anisimov, F. Aquino,
    S. Hirata, M. T. Hackler, Eric Hermes, L. Jensen, J. E. Moore, J. C. Becca,
      V. Konjkov, T. Risthaus, M. Malagoli, A. Marenich, A. Otero-de-la-Roza,
        J. Mullin, P. Nichols, R. Peverati, J. Pittner, Y. Zhao, P.-D. Fan,
        A. Fonari, M. J. Williamson, R. J. Harrison, J. R. Rehr, M. Dupuis,
     D. Silverstein, D. M. A. Smith, J. Nieplocha, V. Tipparaju, M. Krishnan,
     B. E. Van Kuiken, A. Vazquez-Mayagoitia, M. Swart, Q. Wu, T. Van Voorhis,
     A. A. Auer, M. Nooijen, L. D. Crosby, E. Brown, G. Cisneros, G. I. Fann,
   H. Fruchtl, J. Garza, K. Hirao, R. A. Kendall, J. A. Nichols, K. Tsemekhman,
    K. Wolinski, J. Anchell, D. E. Bernholdt, P. Borowski, T. Clark, D. Clerc,
   H. Dachsel, M. J. O. Deegan, K. Dyall, D. Elwood, E. Glendening, M. Gutowski,
   A. C. Hess, J. Jaffe, B. G. Johnson, J. Ju, R. Kobayashi, R. Kutteh, Z. Lin,
   R. Littlefield, X. Long, B. Meng, T. Nakajima, S. Niu, L. Pollack, M. Rosing,
   K. Glaesemann, G. Sandrone, M. Stave, H. Taylor, G. Thomas, J. H. van Lenthe,
                               A. T. Wong, Z. Zhang.

 Total times  cpu:       87.1s     wall:      121.9s
