 argument  1 = input.nw
  NWChem w/ OpenMP: maximum threads =    1



============================== echo of input deck ==============================
 echo
 start HF
 title "HF"

 memory total 24 gb

 geometry units bohr
 symmetry c1
        F  0.00000000  0.00000000  0.00000000
        H  0.00000000  2.7633375  0.00000000
 end

 basis spherical
   * library cc-pVTZ
 end

 mcscf
   active  8
   actelec 10
   multiplicity 1
   maxiter 40
   vectors input HF.mos
   vectors output HF.mos
 end

 task mcscf

 scf
   vectors input HF.mos
   vectors output HF-trash.mos
   noscf
 end

 tce
   2eorb
   2emet 13
   ccsd
   maxiter 500
 end

 set tce:print_integrals T
 set tce:qorb 8
 set tce:qela 5
 set tce:qelb 5

# set tce:qducc T
# set tce:nactv 3
# set tce:nonhf T
# set tce:ducc_model 3

 set tce:printtol 0.02

 task tce
================================================================================


                                         
                                         


             Northwest Computational Chemistry Package (NWChem) 7.0.1
             --------------------------------------------------------


                    Environmental Molecular Sciences Laboratory
                       Pacific Northwest National Laboratory
                                Richland, WA 99352

                              Copyright (c) 1994-2020
                       Pacific Northwest National Laboratory
                            Battelle Memorial Institute

             NWChem is an open-source computational chemistry package
                        distributed under the terms of the
                      Educational Community License (ECL) 2.0
             A copy of the license is included with this distribution
                              in the LICENSE.TXT file

                                  ACKNOWLEDGMENT
                                  --------------

            This software and its documentation were developed at the
            EMSL at Pacific Northwest National Laboratory, a multiprogram
            national laboratory, operated for the U.S. Department of Energy
            by Battelle under Contract Number DE-AC05-76RL01830. Support
            for this work was provided by the Department of Energy Office
            of Biological and Environmental Research, Office of Basic
            Energy Sciences, and the Office of Advanced Scientific Computing.


           Job information
           ---------------

    hostname        = WE46210
    program         = /home/baum612/code/nwchem/bin/LINUX64/nwchem
    date            = Mon May 20 11:29:13 2024

    compiled        = Tue_Apr_30_12:43:26_2024
    source          = /home/baum612/code/nwchem
    nwchem branch   = 7.0.0
    nwchem revision = nwchem_on_git-4191-g39d87d64de
    ga revision     = 5.8.1
    use scalapack   = F
    input           = input.nw
    prefix          = HF.
    data base       = ./HF.db
    status          = startup
    nproc           =        1
    time left       =     -1s



           Memory information
           ------------------

    heap     =  805306362 doubles =   6144.0 Mbytes
    stack    =  805306367 doubles =   6144.0 Mbytes
    global   = 1610612736 doubles =  12288.0 Mbytes (distinct from heap & stack)
    total    = 3221225465 doubles =  24576.0 Mbytes
    verify   = yes
    hardfail = no 


           Directory information
           ---------------------

  0 permanent = .
  0 scratch   = .




                                NWChem Input Module
                                -------------------


                                        HF
                                        --
 Turning off AUTOSYM since
 SYMMETRY directive was detected!


          ------
          auto-z
          ------
     1 autoz failed with cvr_scaling = 1.2 changing to 1.3
     2 autoz failed with cvr_scaling = 1.3 changing to 1.4
     3 autoz failed with cvr_scaling = 1.4 changing to 1.5
     4 autoz failed with cvr_scaling = 1.5 changing to 1.6
  no constraints, skipping    0.0000000000000000     
  no constraints, skipping    0.0000000000000000     


                             Geometry "geometry" -> ""
                             -------------------------

 Output coordinates in a.u. (scale by  1.000000000 to convert to a.u.)

  No.       Tag          Charge          X              Y              Z
 ---- ---------------- ---------- -------------- -------------- --------------
    1 F                    9.0000     0.00000000    -0.27633375     0.00000000
    2 H                    1.0000     0.00000000     2.48700375     0.00000000

      Atomic Mass 
      ----------- 

      F                 18.998400
      H                  1.007825


 Effective nuclear repulsion energy (a.u.)       3.2569311566

            Nuclear Dipole moment (a.u.) 
            ----------------------------
        X                 Y               Z
 ---------------- ---------------- ----------------
     0.0000000000     0.0000000000     0.0000000000



                                Z-matrix (autoz)
                                -------- 

 Units are Angstrom for bonds and degrees for angles

      Type          Name      I     J     K     L     M      Value
      ----------- --------  ----- ----- ----- ----- ----- ----------
    1 Stretch                  1     2                       1.46230


            XYZ format geometry
            -------------------
     2
 geometry
 F                     0.00000000    -0.14622953     0.00000000
 H                     0.00000000     1.31606580     0.00000000



 Summary of "ao basis" -> "" (spherical)
 ------------------------------------------------------------------------------
       Tag                 Description            Shells   Functions and Types
 ---------------- ------------------------------  ------  ---------------------
 *                          cc-pVTZ                   on all atoms 


                      Basis "ao basis" -> "ao basis" (spherical)
                      -----
  F (Fluorine)
  ------------
            Exponent  Coefficients 
       -------------- ---------------------------------------------------------
  1 S  1.95000000E+04  0.000507
  1 S  2.92300000E+03  0.003923
  1 S  6.64500000E+02  0.020200
  1 S  1.87500000E+02  0.079010
  1 S  6.06200000E+01  0.230439
  1 S  2.14200000E+01  0.432872
  1 S  7.95000000E+00  0.349964
  1 S  8.81500000E-01 -0.007892

  2 S  1.95000000E+04 -0.000117
  2 S  2.92300000E+03 -0.000912
  2 S  6.64500000E+02 -0.004717
  2 S  1.87500000E+02 -0.019086
  2 S  6.06200000E+01 -0.059655
  2 S  2.14200000E+01 -0.140010
  2 S  7.95000000E+00 -0.176782
  2 S  8.81500000E-01  0.605043

  3 S  2.25700000E+00  1.000000

  4 S  3.04100000E-01  1.000000

  5 P  4.38800000E+01  0.016665
  5 P  9.92600000E+00  0.104472
  5 P  2.93000000E+00  0.317260

  6 P  9.13200000E-01  1.000000

  7 P  2.67200000E-01  1.000000

  8 D  3.10700000E+00  1.000000

  9 D  8.55000000E-01  1.000000

 10 F  1.91700000E+00  1.000000

  H (Hydrogen)
  ------------
            Exponent  Coefficients 
       -------------- ---------------------------------------------------------
  1 S  3.38700000E+01  0.006068
  1 S  5.09500000E+00  0.045308
  1 S  1.15900000E+00  0.202822

  2 S  3.25800000E-01  1.000000

  3 S  1.02700000E-01  1.000000

  4 P  1.40700000E+00  1.000000

  5 P  3.88000000E-01  1.000000

  6 D  1.05700000E+00  1.000000



 Summary of "ao basis" -> "ao basis" (spherical)
 ------------------------------------------------------------------------------
       Tag                 Description            Shells   Functions and Types
 ---------------- ------------------------------  ------  ---------------------
 F                          cc-pVTZ                 10       30   4s3p2d1f
 H                          cc-pVTZ                  6       14   3s2p1d



                            NWChem Direct MCSCF Module
                            --------------------------


                                        HF


     -----------------------------------
       Basis functions:             44
       Inactive shells:              0
       Active shells:                8
       Active electrons:            10
       Symmetry:                    a       
       Multiplicity:                 1
       Orbital rotations:          288
     -----------------------------------

     -----------------------------------
       E2 extrapolation:             F
       Conjugacy:                    T
       Micro CI relax:               T
       Canonical orbitals:           T
       Maximum iterations:          40
       Converge threshold:    1.00E-04
       Conjugacy resets:            20
       Initial levelshift:        0.10
     -----------------------------------

 Loading old vectors from job with title :

HF


   input molecular orbitals = ./HF.mos
  output molecular orbtials = ./HF.mos

       No. of determinants:          3136


  Starting Orbital Energies
   -26.313882    -1.531303    -0.641340    -0.641340    -0.615514    -0.076143
    -0.006477    -0.003407     0.375906     0.737625     0.737625     0.989985
     1.019601     1.019601     1.656930     2.263418     2.263418     2.274049
     2.274049     2.604097     3.399947     3.399947     3.610311     3.610311
     3.666074     3.887303     3.887303     4.197877     5.088505     5.088505
     5.548622     7.390662     7.390662     7.415406     7.415406     7.455231
     7.455231     7.546163     8.812870     8.862476     8.862476     8.960085
     8.960085     9.971047

  Orbital Symmetry Irreps
a    a    a    a    a    a    a    a    a    a    a    a    a    a    a   
a    a    a    a    a    a    a    a    a    a    a    a    a    a    a   
a    a    a    a    a    a    a    a    a    a    a    a    a    a   

 Integral file          = ./HF.aoints.0
 Record size in doubles =  65536        No. of integs per rec  =  43688
 Max. records in memory =     18        Max. records in file   = 250297
 No. of bits per label  =      8        No. of bits per value  =     64


 #quartets = 9.316D+03 #integrals = 1.251D+05 #direct =  0.0% #cached =100.0%




          %%%%% MacroIteration   1 %%%%%


          Number of sigma calls:       27
                       o<<<<< (aa):             0.00
                       o<<<<< (bb):             0.01
                       o<<<<< (ab):             0.07
                       o<<<<< (total)           0.08
                       o<<<<< (aa) ff           0.00
                       o<<<<< (aa) gop          0.00
                       o<<<<< (aa) dot          0.00
                       o<<<<< (ab) str          0.00
                       o<<<<< (ab) gath         0.00
                       o<<<<< (ab) dotab        0.00
                       o<<<<< (ab) scat         0.00
                       o<<<<< (ab) sync         0.00
                       o<<<<< Density           0.01
                       o<<<<< Density one       0.00
                       o<<<<< Density two       0.00
                       o<<<<< Density ab        0.01
                       o<<<<< Spin adapt        0.23
                       o<<<<< Symm adapt        0.00

                       o<<<<< (ab) max sync:      0.00

           >>>| Valence CI:           -103.258606619064
           >>>| MCSCF energy:         -100.001675462446
           >>>| Gradient norm:          0.421816066D-02
     --- Warning:   51 Hessian diagonals < 0.05 ---

                              ----- Line search ------

        step       energy         lsg     num-lsg   num-lsh   lsrat    time
      ------- ---------------- --------- --------- --------- ------- --------
       0.0000    -100.00167546 -2.25D-06  0.00D+00  0.00D+00 0.0D+00      0.6

          Number of sigma calls:       17
                       o<<<<< (aa):             0.00
                       o<<<<< (bb):             0.00
                       o<<<<< (ab):             0.03
                       o<<<<< (total)           0.04
                       o<<<<< (aa) ff           0.00
                       o<<<<< (aa) gop          0.00
                       o<<<<< (aa) dot          0.00
                       o<<<<< (ab) str          0.00
                       o<<<<< (ab) gath         0.00
                       o<<<<< (ab) dotab        0.00
                       o<<<<< (ab) scat         0.00
                       o<<<<< (ab) sync         0.00
                       o<<<<< Density           0.00
                       o<<<<< Density one       0.00
                       o<<<<< Density two       0.00
                       o<<<<< Density ab        0.00
                       o<<<<< Spin adapt        0.15
                       o<<<<< Symm adapt        0.00

                       o<<<<< (ab) max sync:      0.00
       1.0000    -100.00167675 -3.30D-07 -3.30D-07  1.92D-06 1.5D-01      0.9

          Number of sigma calls:       15
                       o<<<<< (aa):             0.00
                       o<<<<< (bb):             0.00
                       o<<<<< (ab):             0.05
                       o<<<<< (total)           0.05
                       o<<<<< (aa) ff           0.00
                       o<<<<< (aa) gop          0.00
                       o<<<<< (aa) dot          0.00
                       o<<<<< (ab) str          0.00
                       o<<<<< (ab) gath         0.00
                       o<<<<< (ab) dotab        0.00
                       o<<<<< (ab) scat         0.00
                       o<<<<< (ab) sync         0.00
                       o<<<<< Density           0.01
                       o<<<<< Density one       0.00
                       o<<<<< Density two       0.00
                       o<<<<< Density ab        0.00
                       o<<<<< Spin adapt        0.18
                       o<<<<< Symm adapt        0.00

                       o<<<<< (ab) max sync:      0.00
       1.1719    -100.00167678  1.62D-10  1.59D-10  1.92D-06 7.2D-05      1.1
     --- Orbitals canonicalized ---



          %%%%% MacroIteration   2 %%%%%


          Number of sigma calls:       19
                       o<<<<< (aa):             0.00
                       o<<<<< (bb):             0.00
                       o<<<<< (ab):             0.05
                       o<<<<< (total)           0.05
                       o<<<<< (aa) ff           0.00
                       o<<<<< (aa) gop          0.00
                       o<<<<< (aa) dot          0.00
                       o<<<<< (ab) str          0.00
                       o<<<<< (ab) gath         0.00
                       o<<<<< (ab) dotab        0.00
                       o<<<<< (ab) scat         0.00
                       o<<<<< (ab) sync         0.00
                       o<<<<< Density           0.01
                       o<<<<< Density one       0.00
                       o<<<<< Density two       0.00
                       o<<<<< Density ab        0.00
                       o<<<<< Spin adapt        0.13
                       o<<<<< Symm adapt        0.00

                       o<<<<< (ab) max sync:      0.00

           >>>| Valence CI:           -103.258607935694
           >>>| MCSCF energy:         -100.001676779076
           >>>| Gradient norm:          0.962420389D-03
     --- Warning:   51 Hessian diagonals < 0.05 ---
     --- Conjugacy reset ---

                              ----- Line search ------

        step       energy         lsg     num-lsg   num-lsh   lsrat    time
      ------- ---------------- --------- --------- --------- ------- --------
       0.0000    -100.00167678 -9.48D-08  0.00D+00  0.00D+00 0.0D+00      1.4

          Number of sigma calls:       15
                       o<<<<< (aa):             0.00
                       o<<<<< (bb):             0.00
                       o<<<<< (ab):             0.05
                       o<<<<< (total)           0.06
                       o<<<<< (aa) ff           0.00
                       o<<<<< (aa) gop          0.00
                       o<<<<< (aa) dot          0.00
                       o<<<<< (ab) str          0.00
                       o<<<<< (ab) gath         0.00
                       o<<<<< (ab) dotab        0.00
                       o<<<<< (ab) scat         0.00
                       o<<<<< (ab) sync         0.00
                       o<<<<< Density           0.01
                       o<<<<< Density one       0.00
                       o<<<<< Density two       0.00
                       o<<<<< Density ab        0.01
                       o<<<<< Spin adapt        0.14
                       o<<<<< Symm adapt        0.00

                       o<<<<< (ab) max sync:      0.00
       1.0000    -100.00167684 -2.57D-08 -2.57D-08  6.91D-08 2.7D-01      1.6

          Number of sigma calls:       14
                       o<<<<< (aa):             0.00
                       o<<<<< (bb):             0.00
                       o<<<<< (ab):             0.03
                       o<<<<< (total)           0.03
                       o<<<<< (aa) ff           0.00
                       o<<<<< (aa) gop          0.00
                       o<<<<< (aa) dot          0.00
                       o<<<<< (ab) str          0.00
                       o<<<<< (ab) gath         0.00
                       o<<<<< (ab) dotab        0.00
                       o<<<<< (ab) scat         0.00
                       o<<<<< (ab) sync         0.00
                       o<<<<< Density           0.01
                       o<<<<< Density one       0.00
                       o<<<<< Density two       0.00
                       o<<<<< Density ab        0.00
                       o<<<<< Spin adapt        0.16
                       o<<<<< Symm adapt        0.00

                       o<<<<< (ab) max sync:      0.00
       1.3725    -100.00167684  1.01D-11  8.21D-12  6.91D-08 1.1D-04      1.9



          %%%%% MacroIteration   3 %%%%%


          Number of sigma calls:        1
                       o<<<<< (aa):             0.00
                       o<<<<< (bb):             0.00
                       o<<<<< (ab):             0.00
                       o<<<<< (total)           0.00
                       o<<<<< (aa) ff           0.00
                       o<<<<< (aa) gop          0.00
                       o<<<<< (aa) dot          0.00
                       o<<<<< (ab) str          0.00
                       o<<<<< (ab) gath         0.00
                       o<<<<< (ab) dotab        0.00
                       o<<<<< (ab) scat         0.00
                       o<<<<< (ab) sync         0.00
                       o<<<<< Density           0.01
                       o<<<<< Density one       0.00
                       o<<<<< Density two       0.00
                       o<<<<< Density ab        0.01
                       o<<<<< Spin adapt        0.00
                       o<<<<< Symm adapt        0.00

                       o<<<<< (ab) max sync:      0.00

           >>>| Valence CI:           -103.258608000785
           >>>| MCSCF energy:         -100.001676844168
           >>>| Gradient norm:          0.249427384D-03
     --- Warning:   51 Hessian diagonals < 0.05 ---

                              ----- Line search ------

        step       energy         lsg     num-lsg   num-lsh   lsrat    time
      ------- ---------------- --------- --------- --------- ------- --------
       0.0000    -100.00167684 -8.87D-09  0.00D+00  0.00D+00 0.0D+00      1.9

          Number of sigma calls:       14
                       o<<<<< (aa):             0.00
                       o<<<<< (bb):             0.00
                       o<<<<< (ab):             0.04
                       o<<<<< (total)           0.05
                       o<<<<< (aa) ff           0.00
                       o<<<<< (aa) gop          0.00
                       o<<<<< (aa) dot          0.00
                       o<<<<< (ab) str          0.00
                       o<<<<< (ab) gath         0.00
                       o<<<<< (ab) dotab        0.00
                       o<<<<< (ab) scat         0.00
                       o<<<<< (ab) sync         0.00
                       o<<<<< Density           0.01
                       o<<<<< Density one       0.00
                       o<<<<< Density two       0.00
                       o<<<<< Density ab        0.01
                       o<<<<< Spin adapt        0.15
                       o<<<<< Symm adapt        0.00

                       o<<<<< (ab) max sync:      0.00
       1.0000    -100.00167685 -2.26D-09 -2.26D-09  6.61D-09 2.6D-01      2.1

          Number of sigma calls:       12
                       o<<<<< (aa):             0.00
                       o<<<<< (bb):             0.00
                       o<<<<< (ab):             0.04
                       o<<<<< (total)           0.04
                       o<<<<< (aa) ff           0.00
                       o<<<<< (aa) gop          0.00
                       o<<<<< (aa) dot          0.00
                       o<<<<< (ab) str          0.00
                       o<<<<< (ab) gath         0.00
                       o<<<<< (ab) dotab        0.00
                       o<<<<< (ab) scat         0.00
                       o<<<<< (ab) sync         0.00
                       o<<<<< Density           0.01
                       o<<<<< Density one       0.00
                       o<<<<< Density two       0.00
                       o<<<<< Density ab        0.01
                       o<<<<< Spin adapt        0.15
                       o<<<<< Symm adapt        0.00

                       o<<<<< (ab) max sync:      0.00
       1.3424    -100.00167685 -7.43D-14 -2.44D-14  6.61D-09 8.4D-06      2.4



          %%%%% MacroIteration   4 %%%%%


          Number of sigma calls:        1
                       o<<<<< (aa):             0.00
                       o<<<<< (bb):             0.00
                       o<<<<< (ab):             0.00
                       o<<<<< (total)           0.00
                       o<<<<< (aa) ff           0.00
                       o<<<<< (aa) gop          0.00
                       o<<<<< (aa) dot          0.00
                       o<<<<< (ab) str          0.00
                       o<<<<< (ab) gath         0.00
                       o<<<<< (ab) dotab        0.00
                       o<<<<< (ab) scat         0.00
                       o<<<<< (ab) sync         0.00
                       o<<<<< Density           0.00
                       o<<<<< Density one       0.00
                       o<<<<< Density two       0.00
                       o<<<<< Density ab        0.00
                       o<<<<< Spin adapt        0.00
                       o<<<<< Symm adapt        0.00

                       o<<<<< (ab) max sync:      0.00

           >>>| Valence CI:           -103.258608006741
           >>>| MCSCF energy:         -100.001676850124
           >>>| Gradient norm:          0.871990833D-04




     ==============================
            MCSCF Converged
     ==============================



          Canonical Eigenvalues

              1      
    1  -26.3143
    2   -1.5313
    3   -0.6416
    4   -0.6416
    5   -0.6144
    6   -0.0768
    7   -0.0065
    8   -0.0034
    9    0.3759
   10    0.7372
   11    0.7372
   12    0.9885
   13    1.0194
   14    1.0194
   15    1.6547
   16    2.2629
   17    2.2629
   18    2.2740
   19    2.2740
   20    2.6041
   21    3.3999
   22    3.3999
   23    3.6071
   24    3.6071
   25    3.6636
   26    3.8866
   27    3.8866
   28    4.1963
   29    5.0879
   30    5.0879
   31    5.5385
   32    7.3902
   33    7.3902
   34    7.4152
   35    7.4152
   36    7.4525
   37    7.4525
   38    7.5424
   39    8.8047
   40    8.8621
   41    8.8621
   42    8.9574
   43    8.9574
   44    9.9683


          Converged CI vector

   Index           Coefficient          Config. Occupation
         1         -0.95319979          1  2  3  4  5  1  2  3  4  5
         2         -0.10722114          1  2  3  4  5  1  2  3  4  6
        57         -0.10722114          1  2  3  4  6  1  2  3  4  5
        58          0.24763155          1  2  3  4  6  1  2  3  4  6
        61          0.02213393          1  2  3  4  6  1  3  4  5  6
        66          0.02462943          1  2  3  4  6  1  3  4  5  7
      1181          0.02098411          1  2  3  4  8  1  3  4  5  6
       226          0.02213393          1  3  4  5  6  1  2  3  4  6
       246          0.02098411          1  3  4  5  6  1  2  3  4  8
       506          0.02462943          1  3  4  5  7  1  2  3  4  6

          Number of sigma calls:        1
                       o<<<<< (aa):             0.00
                       o<<<<< (bb):             0.00
                       o<<<<< (ab):             0.00
                       o<<<<< (total)           0.00
                       o<<<<< (aa) ff           0.00
                       o<<<<< (aa) gop          0.00
                       o<<<<< (aa) dot          0.00
                       o<<<<< (ab) str          0.00
                       o<<<<< (ab) gath         0.00
                       o<<<<< (ab) dotab        0.00
                       o<<<<< (ab) scat         0.00
                       o<<<<< (ab) sync         0.00
                       o<<<<< Density           0.00
                       o<<<<< Density one       0.00
                       o<<<<< Density two       0.00
                       o<<<<< Density ab        0.00
                       o<<<<< Spin adapt        0.00
                       o<<<<< Symm adapt        0.00

                       o<<<<< (ab) max sync:      0.00



          Natural orbital occupation numbers

              1      
    1    2.0000
    2    1.9992
    3    1.9992
    4    1.9945
    5    1.8611
    6    0.1392
    7    0.0044
    8    0.0023


          Number of sigma calls:       27
                       o<<<<< (aa):             0.00
                       o<<<<< (bb):             0.00
                       o<<<<< (ab):             0.07
                       o<<<<< (total)           0.08
                       o<<<<< (aa) ff           0.00
                       o<<<<< (aa) gop          0.00
                       o<<<<< (aa) dot          0.00
                       o<<<<< (ab) str          0.00
                       o<<<<< (ab) gath         0.00
                       o<<<<< (ab) dotab        0.00
                       o<<<<< (ab) scat         0.00
                       o<<<<< (ab) sync         0.00
                       o<<<<< Density           0.00
                       o<<<<< Density one       0.00
                       o<<<<< Density two       0.00
                       o<<<<< Density ab        0.00
                       o<<<<< Spin adapt        0.23
                       o<<<<< Symm adapt        0.00

                       o<<<<< (ab) max sync:      0.00


       Final MCSCF results 
       ------------------- 

       Total MCSCF energy =   -100.001676850124
            Gradient norm =      8.7D-05

    CPU time for solution =      2.8s
   Wall time for solution =      5.8s



                        Analysis of MCSCF natural orbitals
                        ----------------------------------

 Vector    1  Occ=1.999983D+00  E=-2.631427D+01  Symmetry=a
              MO Center=  1.4D-14, -1.5D-01,  5.7D-14, r^2= 1.2D-02
   Bfn.  Coefficient  Atom+Function         Bfn.  Coefficient  Atom+Function  
  ----- ------------  ---------------      ----- ------------  ---------------
     1      0.976030  1 F  s          

 Vector    2  Occ=1.999210D+00  E=-1.531346D+00  Symmetry=a
              MO Center= -7.6D-15, -1.4D-01,  5.9D-13, r^2= 4.5D-01
   Bfn.  Coefficient  Atom+Function         Bfn.  Coefficient  Atom+Function  
  ----- ------------  ---------------      ----- ------------  ---------------
    10      0.473074  1 F  pz                 7      0.389654  1 F  pz         
    13      0.357174  1 F  pz         

 Vector    3  Occ=1.999210D+00  E=-6.416092D-01  Symmetry=a
              MO Center=  6.2D-13, -1.4D-01, -9.7D-15, r^2= 4.5D-01
   Bfn.  Coefficient  Atom+Function         Bfn.  Coefficient  Atom+Function  
  ----- ------------  ---------------      ----- ------------  ---------------
     8      0.473074  1 F  px                 5      0.389654  1 F  px         
    11      0.357174  1 F  px         

 Vector    4  Occ=1.994512D+00  E=-6.416092D-01  Symmetry=a
              MO Center= -6.2D-13, -1.8D-01, -6.0D-13, r^2= 3.5D-01
   Bfn.  Coefficient  Atom+Function         Bfn.  Coefficient  Atom+Function  
  ----- ------------  ---------------      ----- ------------  ---------------
     2      0.572185  1 F  s                  4      0.382235  1 F  s          
     3      0.169793  1 F  s          

 Vector    5  Occ=1.861122D+00  E=-6.143593D-01  Symmetry=a
              MO Center= -9.4D-14,  3.8D-01, -1.1D-13, r^2= 9.3D-01
   Bfn.  Coefficient  Atom+Function         Bfn.  Coefficient  Atom+Function  
  ----- ------------  ---------------      ----- ------------  ---------------
     9      0.362843  1 F  py                 6      0.294217  1 F  py         
    32      0.290374  2 H  s                 12      0.252808  1 F  py         

 Vector    6  Occ=1.392465D-01  E=-7.683242D-02  Symmetry=a
              MO Center=  1.6D-14,  7.5D-01,  2.2D-14, r^2= 9.8D-01
   Bfn.  Coefficient  Atom+Function         Bfn.  Coefficient  Atom+Function  
  ----- ------------  ---------------      ----- ------------  ---------------
    32      0.516189  2 H  s                  9     -0.419929  1 F  py         
     6     -0.354649  1 F  py                31      0.227683  2 H  s          
    33      0.188761  2 H  s          

 Vector    7  Occ=4.371709D-03  E=-6.461329D-03  Symmetry=a
              MO Center=  1.3D-14, -2.7D-01,  9.0D-15, r^2= 8.0D-01
   Bfn.  Coefficient  Atom+Function         Bfn.  Coefficient  Atom+Function  
  ----- ------------  ---------------      ----- ------------  ---------------
     4      1.307748  1 F  s                  3     -0.739195  1 F  s          
     2     -0.698335  1 F  s                 23      0.168213  1 F  d  2       

 Vector    8  Occ=2.345133D-03  E=-3.404323D-03  Symmetry=a
              MO Center=  1.6D-14, -2.5D-01,  1.7D-15, r^2= 4.9D-01
   Bfn.  Coefficient  Atom+Function         Bfn.  Coefficient  Atom+Function  
  ----- ------------  ---------------      ----- ------------  ---------------
    23      0.590489  1 F  d  2              21      0.340916  1 F  d  0       
    18      0.317188  1 F  d  2               3      0.269645  1 F  s          
    12      0.233659  1 F  py                 6     -0.217312  1 F  py         
     4     -0.203676  1 F  s                 16      0.183127  1 F  d  0       

 Vector    9  Occ=0.000000D+00  E= 3.759439D-01  Symmetry=a
              MO Center=  1.2D-14,  1.6D+00,  1.5D-14, r^2= 3.2D+00
   Bfn.  Coefficient  Atom+Function         Bfn.  Coefficient  Atom+Function  
  ----- ------------  ---------------      ----- ------------  ---------------
    33      1.765795  2 H  s                 32     -1.088065  2 H  s          
     4     -0.655611  1 F  s                 12     -0.301250  1 F  py         
     2      0.209423  1 F  s          

 Vector   10  Occ=0.000000D+00  E= 7.372473D-01  Symmetry=a
              MO Center=  1.4D-14,  1.1D+00,  1.3D-16, r^2= 1.2D+00
   Bfn.  Coefficient  Atom+Function         Bfn.  Coefficient  Atom+Function  
  ----- ------------  ---------------      ----- ------------  ---------------
    37      0.940820  2 H  px                 8     -0.290367  1 F  px         
    11      0.278045  1 F  px         

 Vector   11  Occ=0.000000D+00  E= 7.372473D-01  Symmetry=a
              MO Center=  1.0D-15,  1.1D+00,  1.3D-14, r^2= 1.2D+00
   Bfn.  Coefficient  Atom+Function         Bfn.  Coefficient  Atom+Function  
  ----- ------------  ---------------      ----- ------------  ---------------
    39      0.940820  2 H  pz                10     -0.290367  1 F  pz         
    13      0.278045  1 F  pz         

 Vector   12  Occ=0.000000D+00  E= 9.885138D-01  Symmetry=a
              MO Center=  2.6D-14,  1.1D+00,  5.5D-14, r^2= 1.7D+00
   Bfn.  Coefficient  Atom+Function         Bfn.  Coefficient  Atom+Function  
  ----- ------------  ---------------      ----- ------------  ---------------
    38      0.910641  2 H  py                32      0.546820  2 H  s          
    12     -0.529657  1 F  py                 9      0.461730  1 F  py         
    33     -0.390929  2 H  s                  4      0.335961  1 F  s          

 Vector   13  Occ=0.000000D+00  E= 1.019365D+00  Symmetry=a
              MO Center= -2.8D-14, -3.2D-02,  1.2D-15, r^2= 1.7D+00
   Bfn.  Coefficient  Atom+Function         Bfn.  Coefficient  Atom+Function  
  ----- ------------  ---------------      ----- ------------  ---------------
    11      1.216915  1 F  px                 8     -0.684524  1 F  px         
    37     -0.561591  2 H  px                 5     -0.223163  1 F  px         

 Vector   14  Occ=0.000000D+00  E= 1.019365D+00  Symmetry=a
              MO Center=  7.5D-16, -3.2D-02, -5.3D-14, r^2= 1.7D+00
   Bfn.  Coefficient  Atom+Function         Bfn.  Coefficient  Atom+Function  
  ----- ------------  ---------------      ----- ------------  ---------------
    13      1.216915  1 F  pz                10     -0.684524  1 F  pz         
    39     -0.561591  2 H  pz                 7     -0.223163  1 F  pz         

 Vector   15  Occ=0.000000D+00  E= 1.654726D+00  Symmetry=a
              MO Center=  6.0D-15,  3.2D-01, -3.3D-16, r^2= 2.5D+00
   Bfn.  Coefficient  Atom+Function         Bfn.  Coefficient  Atom+Function  
  ----- ------------  ---------------      ----- ------------  ---------------
    12      1.892414  1 F  py                 4      1.767309  1 F  s          
    38      1.528120  2 H  py                32     -0.797352  2 H  s          
     2     -0.663302  1 F  s                 33     -0.511183  2 H  s          
     9     -0.504619  1 F  py                23     -0.420835  1 F  d  2       
     1     -0.264636  1 F  s                 21     -0.242965  1 F  d  0       

 Vector   16  Occ=0.000000D+00  E= 2.262892D+00  Symmetry=a
              MO Center=  2.2D-16,  8.0D-02, -9.5D-15, r^2= 8.6D-01
   Bfn.  Coefficient  Atom+Function         Bfn.  Coefficient  Atom+Function  
  ----- ------------  ---------------      ----- ------------  ---------------
    20      0.946158  1 F  d -1              41     -0.247099  2 H  d -1       
    39     -0.230225  2 H  pz         

 Vector   17  Occ=0.000000D+00  E= 2.262892D+00  Symmetry=a
              MO Center= -2.1D-15,  8.0D-02, -1.2D-14, r^2= 8.6D-01
   Bfn.  Coefficient  Atom+Function         Bfn.  Coefficient  Atom+Function  
  ----- ------------  ---------------      ----- ------------  ---------------
    19      0.946158  1 F  d -2              40     -0.247099  2 H  d -2       
    37     -0.230225  2 H  px         

 Vector   18  Occ=0.000000D+00  E= 2.274031D+00  Symmetry=a
              MO Center=  7.4D-15, -1.4D-01,  2.0D-14, r^2= 5.9D-01
   Bfn.  Coefficient  Atom+Function         Bfn.  Coefficient  Atom+Function  
  ----- ------------  ---------------      ----- ------------  ---------------
    22      1.001757  1 F  d  1       


 Wrote Lagrangian and 1- and 2-particle density matrices to ./HF.mcpdm


     Multipole analysis of the density
     ---------------------------------

     L   x y z        total        nuclear
     -   - - -        -----        -------
     0   0 0 0     -0.000000     10.000000

     1   1 0 0      0.000000      0.000000
     1   0 1 0      0.750386      0.000000
     1   0 0 1      0.000000      0.000000

     2   2 0 0     -4.417292      0.000000
     2   1 1 0      0.000000      0.000000
     2   1 0 1      0.000000      0.000000
     2   0 2 0     -1.836742      6.872431
     2   0 1 1      0.000000      0.000000
     2   0 0 2     -4.417292      0.000000


  Mulliken analysis of the total density
  --------------------------------------

    Atom       Charge   Shell Charges
 -----------   ------   -------------------------------------------------------
    1 F    9     9.26   1.95  1.08  0.27  0.67  1.50  2.33  1.44  0.00  0.00  0.00
    2 H    1     0.74   0.15  0.42  0.15  0.00  0.02  0.00

    Mulliken analysis of the active space density
    ---------------------------------------------

    Atom       Charge   Shell Charges
 -----------   ------   -------------------------------------------------------
    1 F    9     9.26   1.95  1.08  0.27  0.67  1.50  2.33  1.44  0.00  0.00  0.00
    2 H    1     0.74   0.15  0.42  0.15  0.00  0.02  0.00

 Parallel integral file used       3 records with       0 large values


 Task  times  cpu:        2.8s     wall:        5.8s


                                NWChem Input Module
                                -------------------


                                 NWChem SCF Module
                                 -----------------


                                        HF



  ao basis        = "ao basis"
  functions       =    44
  atoms           =     2
  closed shells   =     5
  open shells     =     0
  charge          =   0.00
  wavefunction    = RHF 
  input vectors   = ./HF.mos
  output vectors  = ./HF-trash.mos
  use symmetry    = F
  symmetry adapt  = F


 Summary of "ao basis" -> "ao basis" (spherical)
 ------------------------------------------------------------------------------
       Tag                 Description            Shells   Functions and Types
 ---------------- ------------------------------  ------  ---------------------
 F                          cc-pVTZ                 10       30   4s3p2d1f
 H                          cc-pVTZ                  6       14   3s2p1d



 Forming initial guess at       5.9s


 Loading old vectors from job with title :

HF


 Starting SCF solution at       5.9s



 ----------------------------------------------
         Quadratically convergent ROHF

 Convergence threshold     :          1.000E-04
 Maximum no. of iterations :           30
 Final Fock-matrix accuracy:          1.000E-07
 ----------------------------------------------


 Integral file          = ./HF.aoints.0
 Record size in doubles =  65536        No. of integs per rec  =  43688
 Max. records in memory =     18        Max. records in file   = 250307
 No. of bits per label  =      8        No. of bits per value  =     64


 #quartets = 9.316D+03 #integrals = 1.251D+05 #direct =  0.0% #cached =100.0%



       Final RHF  results 
       ------------------ 

         Total SCF energy =    -99.911762850980
      One-electron energy =   -146.986735863255
      Two-electron energy =     43.818041855658
 Nuclear repulsion energy =      3.256931156618

        Time for solution =      0.0s


             Final eigenvalues
             -----------------

              1      
    1  -26.3143
    2   -1.5313
    3   -0.6416
    4   -0.6416
    5   -0.6144
    6   -0.0768
    7   -0.0065
    8   -0.0034
    9    0.3759
   10    0.7372
   11    0.7372
   12    0.9885
   13    1.0194
   14    1.0194
   15    1.6547

                       ROHF Final Molecular Orbital Analysis
                       -------------------------------------

 Vector    2  Occ=2.000000D+00  E=-1.531346D+00
              MO Center= -7.6D-15, -1.4D-01,  5.9D-13, r^2= 4.5D-01
   Bfn.  Coefficient  Atom+Function         Bfn.  Coefficient  Atom+Function  
  ----- ------------  ---------------      ----- ------------  ---------------
    10      0.473074  1 F  pz                 7      0.389654  1 F  pz         
    13      0.357174  1 F  pz         

 Vector    3  Occ=2.000000D+00  E=-6.416092D-01
              MO Center=  6.2D-13, -1.4D-01, -9.7D-15, r^2= 4.5D-01
   Bfn.  Coefficient  Atom+Function         Bfn.  Coefficient  Atom+Function  
  ----- ------------  ---------------      ----- ------------  ---------------
     8      0.473074  1 F  px                 5      0.389654  1 F  px         
    11      0.357174  1 F  px         

 Vector    4  Occ=2.000000D+00  E=-6.416092D-01
              MO Center= -6.2D-13, -1.8D-01, -6.0D-13, r^2= 3.5D-01
   Bfn.  Coefficient  Atom+Function         Bfn.  Coefficient  Atom+Function  
  ----- ------------  ---------------      ----- ------------  ---------------
     2      0.572185  1 F  s                  4      0.382235  1 F  s          
     3      0.169793  1 F  s          

 Vector    5  Occ=2.000000D+00  E=-6.143593D-01
              MO Center= -9.4D-14,  3.8D-01, -1.1D-13, r^2= 9.3D-01
   Bfn.  Coefficient  Atom+Function         Bfn.  Coefficient  Atom+Function  
  ----- ------------  ---------------      ----- ------------  ---------------
     9      0.362843  1 F  py                 6      0.294217  1 F  py         
    32      0.290374  2 H  s                 12      0.252808  1 F  py         

 Vector    6  Occ=0.000000D+00  E=-7.683242D-02
              MO Center=  1.6D-14,  7.5D-01,  2.2D-14, r^2= 9.8D-01
   Bfn.  Coefficient  Atom+Function         Bfn.  Coefficient  Atom+Function  
  ----- ------------  ---------------      ----- ------------  ---------------
    32      0.516189  2 H  s                  9     -0.419929  1 F  py         
     6     -0.354649  1 F  py                31      0.227683  2 H  s          
    33      0.188761  2 H  s          

 Vector    7  Occ=0.000000D+00  E=-6.461329D-03
              MO Center=  1.3D-14, -2.7D-01,  9.0D-15, r^2= 8.0D-01
   Bfn.  Coefficient  Atom+Function         Bfn.  Coefficient  Atom+Function  
  ----- ------------  ---------------      ----- ------------  ---------------
     4      1.307748  1 F  s                  3     -0.739195  1 F  s          
     2     -0.698335  1 F  s                 23      0.168213  1 F  d  2       

 Vector    8  Occ=0.000000D+00  E=-3.404323D-03
              MO Center=  1.6D-14, -2.5D-01,  1.7D-15, r^2= 4.9D-01
   Bfn.  Coefficient  Atom+Function         Bfn.  Coefficient  Atom+Function  
  ----- ------------  ---------------      ----- ------------  ---------------
    23      0.590489  1 F  d  2              21      0.340916  1 F  d  0       
    18      0.317188  1 F  d  2               3      0.269645  1 F  s          
    12      0.233659  1 F  py                 6     -0.217312  1 F  py         
     4     -0.203676  1 F  s                 16      0.183127  1 F  d  0       

 Vector    9  Occ=0.000000D+00  E= 3.759439D-01
              MO Center=  1.2D-14,  1.6D+00,  1.5D-14, r^2= 3.2D+00
   Bfn.  Coefficient  Atom+Function         Bfn.  Coefficient  Atom+Function  
  ----- ------------  ---------------      ----- ------------  ---------------
    33      1.765795  2 H  s                 32     -1.088065  2 H  s          
     4     -0.655611  1 F  s                 12     -0.301250  1 F  py         
     2      0.209423  1 F  s          

 Vector   10  Occ=0.000000D+00  E= 7.372473D-01
              MO Center=  1.4D-14,  1.1D+00,  1.3D-16, r^2= 1.2D+00
   Bfn.  Coefficient  Atom+Function         Bfn.  Coefficient  Atom+Function  
  ----- ------------  ---------------      ----- ------------  ---------------
    37      0.940820  2 H  px                 8     -0.290367  1 F  px         
    11      0.278045  1 F  px         

 Vector   11  Occ=0.000000D+00  E= 7.372473D-01
              MO Center=  1.0D-15,  1.1D+00,  1.3D-14, r^2= 1.2D+00
   Bfn.  Coefficient  Atom+Function         Bfn.  Coefficient  Atom+Function  
  ----- ------------  ---------------      ----- ------------  ---------------
    39      0.940820  2 H  pz                10     -0.290367  1 F  pz         
    13      0.278045  1 F  pz         

 Vector   12  Occ=0.000000D+00  E= 9.885138D-01
              MO Center=  2.6D-14,  1.1D+00,  5.5D-14, r^2= 1.7D+00
   Bfn.  Coefficient  Atom+Function         Bfn.  Coefficient  Atom+Function  
  ----- ------------  ---------------      ----- ------------  ---------------
    38      0.910641  2 H  py                32      0.546820  2 H  s          
    12     -0.529657  1 F  py                 9      0.461730  1 F  py         
    33     -0.390929  2 H  s                  4      0.335961  1 F  s          

 Vector   13  Occ=0.000000D+00  E= 1.019365D+00
              MO Center= -2.8D-14, -3.2D-02,  1.2D-15, r^2= 1.7D+00
   Bfn.  Coefficient  Atom+Function         Bfn.  Coefficient  Atom+Function  
  ----- ------------  ---------------      ----- ------------  ---------------
    11      1.216915  1 F  px                 8     -0.684524  1 F  px         
    37     -0.561591  2 H  px                 5     -0.223163  1 F  px         

 Vector   14  Occ=0.000000D+00  E= 1.019365D+00
              MO Center=  7.5D-16, -3.2D-02, -5.3D-14, r^2= 1.7D+00
   Bfn.  Coefficient  Atom+Function         Bfn.  Coefficient  Atom+Function  
  ----- ------------  ---------------      ----- ------------  ---------------
    13      1.216915  1 F  pz                10     -0.684524  1 F  pz         
    39     -0.561591  2 H  pz                 7     -0.223163  1 F  pz         

 Vector   15  Occ=0.000000D+00  E= 1.654726D+00
              MO Center=  6.0D-15,  3.2D-01, -3.3D-16, r^2= 2.5D+00
   Bfn.  Coefficient  Atom+Function         Bfn.  Coefficient  Atom+Function  
  ----- ------------  ---------------      ----- ------------  ---------------
    12      1.892414  1 F  py                 4      1.767309  1 F  s          
    38      1.528120  2 H  py                32     -0.797352  2 H  s          
     2     -0.663302  1 F  s                 33     -0.511183  2 H  s          
     9     -0.504619  1 F  py                23     -0.420835  1 F  d  2       
     1     -0.264636  1 F  s                 21     -0.242965  1 F  d  0       


 center of mass
 --------------
 x =   0.00000000 y =  -0.13712905 z =   0.00000000

 moments of inertia (a.u.)
 ------------------
           7.308106489708           0.000000000000           0.000000000000
           0.000000000000           0.000000000000           0.000000000000
           0.000000000000           0.000000000000           7.308106489708

  Mulliken analysis of the total density
  --------------------------------------

    Atom       Charge   Shell Charges
 -----------   ------   -------------------------------------------------------
    1 F    9     9.29   1.95  1.08  0.27  0.67  1.50  2.34  1.46  0.00  0.00  0.00
    2 H    1     0.71   0.14  0.40  0.15  0.00  0.03  0.00

       Multipole analysis of the density wrt the origin
       ------------------------------------------------

     L   x y z        total         open         nuclear
     -   - - -        -----         ----         -------
     0   0 0 0     -0.000000      0.000000     10.000000

     1   1 0 0      0.000000      0.000000      0.000000
     1   0 1 0      0.848224      0.000000      0.000000
     1   0 0 1      0.000000      0.000000      0.000000

     2   2 0 0     -4.414319      0.000000      0.000000
     2   1 1 0      0.000000      0.000000      0.000000
     2   1 0 1      0.000000      0.000000      0.000000
     2   0 2 0     -1.593144      0.000000      6.872431
     2   0 1 1      0.000000      0.000000      0.000000
     2   0 0 2     -4.414319      0.000000      0.000000


 Parallel integral file used       3 records with       0 large values

 ------------------------------------
     Number of active orbitals      8
     Number of active alpha electrons      5
     Number of active beta electrons       5
 ------------------------------------
                   NWChem Extensible Many-Electron Theory Module
                   ---------------------------------------------

              ======================================================
                   This portion of the program was automatically
                  generated by a Tensor Contraction Engine (TCE).
                  The development of this portion of the program
                 and TCE was supported by US Department of Energy,
                Office of Science, Office of Basic Energy Science.
                      TCE is a product of Battelle and PNNL.
              Please cite: S.Hirata, J.Phys.Chem.A 107, 9887 (2003).
              ======================================================

                                        HF


            General Information
            -------------------
      Number of processors :     1
         Wavefunction type : Restricted Hartree-Fock
          No. of electrons :    10
           Alpha electrons :     5
            Beta electrons :     5
           No. of orbitals :    88
            Alpha orbitals :    44
             Beta orbitals :    44
        Alpha frozen cores :     0
         Beta frozen cores :     0
     Alpha frozen virtuals :    36
      Beta frozen virtuals :    36
         Spin multiplicity : singlet 
    Number of AO functions :    44
       Number of AO shells :    16
        Use of symmetry is : off
      Symmetry adaption is : off
         Schwarz screening : 0.10D-09

          Correlation Information
          -----------------------
          Calculation type : Coupled-cluster singles & doubles                           
   Perturbative correction : none                                                        
            Max iterations :      500
        Residual threshold : 0.10D-06
     T(0) DIIS level shift : 0.00D+00
     L(0) DIIS level shift : 0.00D+00
     T(1) DIIS level shift : 0.00D+00
     L(1) DIIS level shift : 0.00D+00
     T(R) DIIS level shift : 0.00D+00
     T(I) DIIS level shift : 0.00D+00
   CC-T/L Amplitude update :  5-th order DIIS
                I/O scheme : Global Array Library
        L-threshold :  0.10D-06
        EOM-threshold :  0.10D-06
 no EOMCCSD initial starts read in
 TCE RESTART OPTIONS
 READ_INT:   F
 WRITE_INT:  F
 READ_TA:    F
 WRITE_TA:   F
 READ_XA:    F
 WRITE_XA:   F
 READ_IN3:   F
 WRITE_IN3:  F
 SLICE:      F
 D4D5:       F
 quantumc:   T
 qrotation:  F
 pwtce:      F
 qducc:      F
 nacto:                         0
 nrotv:                         0
 nrot:                          0

            Memory Information
            ------------------
          Available GA space size is    1610610800 doubles
          Available MA space size is    1610610316 doubles

 Maximum block size supplied by input
 Maximum block size         1 doubles

 tile_dim =      1

 Block   Spin    Irrep     Size     Offset   Alpha
 -------------------------------------------------
   1    alpha     a      1 doubles       0       1
   2    alpha     a      1 doubles       1       2
   3    alpha     a      1 doubles       2       3
   4    alpha     a      1 doubles       3       4
   5    alpha     a      1 doubles       4       5
   6    beta      a      1 doubles       5       1
   7    beta      a      1 doubles       6       2
   8    beta      a      1 doubles       7       3
   9    beta      a      1 doubles       8       4
  10    beta      a      1 doubles       9       5
  11    alpha     a      1 doubles      10      11
  12    alpha     a      1 doubles      11      12
  13    alpha     a      1 doubles      12      13
  14    beta      a      1 doubles      13      11
  15    beta      a      1 doubles      14      12
  16    beta      a      1 doubles      15      13

 Global array virtual files algorithm will be used

 Parallel file system coherency ......... OK

 Integral file          = ./HF.aoints.0
 Record size in doubles =  65536        No. of integs per rec  =  43688
 Max. records in memory =     18        Max. records in file   = 250307
 No. of bits per label  =      8        No. of bits per value  =     64


 #quartets = 9.316D+03 #integrals = 1.251D+05 #direct =  0.0% #cached =100.0%


 Fock matrix recomputed
 1-e file size   =               64
 1-e file name   = ./HF.f1
 Cpu & wall time / sec            0.1            0.1
 4-electron integrals stored in orbital form

 v2    file size   =              666
 4-index algorithm nr.  13 is used
 imaxsize =       30
 imaxsize ichop =        0
 begin_one_electron_integrals
    1    1       -40.7854152016
    4    1         0.6139054233
    5    1        -0.0254286400
    6    1        -0.1039819846
    7    1        -0.7207427438
    8    1         0.2159702730
    2    2        -8.3466952863
    3    3        -8.3466953278
    1    4         0.6139054233
    4    4        -9.2586505622
    5    4         0.0778973062
    6    4         0.3362149999
    7    4         2.0771997589
    8    4        -0.5139651034
    1    5        -0.0254286400
    4    5         0.0778973062
    5    5        -6.7559115536
    6    5         2.6244401534
    7    5        -0.4701365454
    8    5         0.6905406228
    1    6        -0.1039819846
    4    6         0.3362149999
    5    6         2.6244401534
    6    6        -6.0146380366
    7    6        -0.0338465211
    8    6        -0.2589298813
    1    7        -0.7207427438
    4    7         2.0771997589
    5    7        -0.4701365454
    6    7        -0.0338465211
    7    7        -5.6292411342
    8    7         0.2508167205
    1    8         0.2159702730
    4    8        -0.5139651034
    5    8         0.6905406228
    6    8        -0.2589298813
    7    8         0.2508167205
    8    8        -4.9379131789
 end_one_electron_integrals
 begin_two_electron_integrals
    1    1    1    1        5.3662843854
    2    1    2    1        0.0398040032
    3    1    3    1        0.0398040039
    4    1    1    1       -0.5242281614
    4    1    4    1        0.0844642021
    4    1    2    2       -0.0146772401
    4    1    3    3       -0.0146772403
    5    1    1    1        0.0125745589
    5    1    4    1       -0.0036967229
    5    1    5    1        0.0231969961
    5    1    2    2        0.0007009172
    5    1    3    3        0.0007009172
    5    1    4    4       -0.0026468211
    6    1    1    1        0.0773355967
    6    1    4    1       -0.0104854250
    6    1    5    1       -0.0260049073
    6    1    6    1        0.0317183210
    6    1    2    2        0.0019910965
    6    1    3    3        0.0019910962
    6    1    4    4        0.0071366823
    6    1    5    4       -0.0274968884
    6    1    5    5       -0.0013271689
    7    1    1    1        0.5688613166
    7    1    4    1       -0.0948276218
    7    1    5    1        0.0103123547
    7    1    6    1        0.0046646772
    7    1    7    1        0.1088357019
    7    1    2    2        0.0150861010
    7    1    3    3        0.0150860954
    7    1    4    4        0.0220290007
    7    1    5    4        0.0063786375
    7    1    6    4       -0.0097369505
    7    1    5    5        0.0073667812
    7    1    6    5       -0.0077382449
    7    1    6    6        0.0115615920
    8    1    1    1       -0.1680395436
    8    1    4    1        0.0293275718
    8    1    5    1       -0.0129479254
    8    1    6    1        0.0097069132
    8    1    7    1       -0.0357182701
    8    1    8    1        0.0184029908
    8    1    2    2       -0.0000428847
    8    1    3    3       -0.0000428393
    8    1    4    4       -0.0052283321
    8    1    5    4       -0.0107569861
    8    1    6    4        0.0105275832
    8    1    7    4        0.0075344584
    8    1    5    5       -0.0080864940
    8    1    6    5        0.0069059426
    8    1    7    5        0.0070632779
    8    1    6    6       -0.0110783301
    8    1    7    6       -0.0092069454
    8    1    7    7       -0.0069926431
    2    2    1    1        1.2327442174
    2    2    2    2        0.8982691918
    3    2    3    2        0.0441834829
    4    2    2    1        0.0405946476
    4    2    3    1        0.0000000025
    4    2    4    2        0.1746492840
    5    2    2    1       -0.0004112511
    5    2    3    1       -0.0000000005
    5    2    4    2       -0.0007867786
    5    2    5    2        0.0295948537
    5    2    4    3       -0.0000000027
    6    2    2    1       -0.0052372033
    6    2    3    1        0.0000000001
    6    2    4    2       -0.0167308539
    6    2    5    2       -0.0222038193
    6    2    6    2        0.0226232461
    6    2    4    3        0.0000000011
    6    2    5    3       -0.0000000002
    7    2    2    1       -0.0181795220
    7    2    3    1        0.0000000031
    7    2    4    2       -0.0099191977
    7    2    5    2        0.0031394239
    7    2    6    2        0.0024653703
    7    2    7    2        0.0460435326
    7    2    4    3        0.0000000224
    7    2    5    3        0.0000000006
    7    2    6    3       -0.0000000006
    8    2    2    1        0.0215579628
    8    2    3    1        0.0000000007
    8    2    4    2        0.0771333737
    8    2    5    2       -0.0025062961
    8    2    6    2       -0.0069809306
    8    2    7    2       -0.0066060168
    8    2    8    2        0.0548881557
    8    2    4    3       -0.0000000027
    8    2    5    3        0.0000000023
    8    2    6    3       -0.0000000015
    8    2    7    3       -0.0000000097
    3    3    1    1        1.2327442267
    3    3    2    2        0.8099022304
    3    3    3    3        0.8982692007
    4    3    2    1       -0.0000000025
    4    3    3    1        0.0405946483
    4    3    4    3        0.1746492858
    5    3    2    1        0.0000000005
    5    3    3    1       -0.0004112512
    5    3    4    2        0.0000000027
    5    3    4    3       -0.0007867786
    5    3    5    3        0.0295948536
    6    3    2    1       -0.0000000001
    6    3    3    1       -0.0052372048
    6    3    4    2       -0.0000000011
    6    3    5    2        0.0000000002
    6    3    4    3       -0.0167308608
    6    3    5    3       -0.0222038192
    6    3    6    3        0.0226232473
    7    3    2    1       -0.0000000031
    7    3    3    1       -0.0181795454
    7    3    4    2       -0.0000000224
    7    3    5    2       -0.0000000006
    7    3    6    2        0.0000000006
    7    3    4    3       -0.0099192983
    7    3    5    3        0.0031394253
    7    3    6    3        0.0024653793
    7    3    7    3        0.0460435367
    8    3    2    1       -0.0000000007
    8    3    3    1        0.0215581440
    8    3    4    2        0.0000000027
    8    3    5    2       -0.0000000023
    8    3    6    2        0.0000000015
    8    3    7    2        0.0000000097
    8    3    4    3        0.0771341651
    8    3    5    3       -0.0025062929
    8    3    6    3       -0.0069810166
    8    3    7    3       -0.0066060751
    8    3    8    3        0.0548889150
    4    4    1    1        1.2827416249
    4    4    4    1       -0.0215879479
    4    4    2    2        0.8673806455
    4    4    3    3        0.8673806500
    4    4    4    4        0.9042981143
    5    4    1    1       -0.0419065245
    5    4    4    1       -0.0006182690
    5    4    5    1        0.0245964927
    5    4    2    2       -0.0171150188
    5    4    3    3       -0.0171150190
    5    4    4    4       -0.0345148563
    5    4    5    4        0.1177103351
    6    4    1    1       -0.0684923880
    6    4    4    1        0.0041034736
    6    4    5    1       -0.0225690825
    6    4    6    1        0.0245804300
    6    4    2    2       -0.0356726934
    6    4    3    3       -0.0356726967
    6    4    4    4       -0.0216770984
    6    4    5    4       -0.0879613126
    6    4    6    4        0.0778563427
    6    4    5    5       -0.0269462140
    7    4    1    1       -0.5398738443
    7    4    4    1        0.0249851093
    7    4    5    1        0.0039344459
    7    4    6    1       -0.0090038582
    7    4    7    1       -0.0244969920
    7    4    2    2       -0.1743817257
    7    4    3    3       -0.1743817724
    7    4    4    4       -0.1949069782
    7    4    5    4        0.0174762761
    7    4    6    4        0.0038216623
    7    4    7    4        0.1253535214
    7    4    5    5       -0.1303936669
    7    4    6    5        0.1115662147
    7    4    6    6       -0.1272312750
    8    4    1    1        0.1467251812
    8    4    4    1       -0.0077312438
    8    4    5    1       -0.0033623750
    8    4    6    1        0.0049325143
    8    4    7    1        0.0092001767
    8    4    8    1        0.0054516301
    8    4    2    2        0.0753699318
    8    4    3    3        0.0753702869
    8    4    4    4        0.0459783181
    8    4    5    4       -0.0026303946
    8    4    6    4       -0.0078911536
    8    4    7    4       -0.0116215015
    8    4    8    4        0.0816343871
    8    4    5    5       -0.0171728276
    8    4    6    5        0.0033850138
    8    4    7    5        0.0119026139
    8    4    6    6       -0.0072325919
    8    4    7    6       -0.0071662109
    8    4    7    7        0.0270008010
    5    5    1    1        0.9007893916
    5    5    4    1       -0.0087426701
    5    5    5    1        0.0028398015
    5    5    2    2        0.6417374567
    5    5    3    3        0.6417374589
    5    5    4    4        0.6796166059
    5    5    5    4        0.0219055190
    5    5    5    5        0.6391255326
    6    5    1    1       -0.5133602768
    6    5    4    1        0.0096288415
    6    5    5    1       -0.0003890852
    6    5    6    1       -0.0016894588
    6    5    2    2       -0.2580021671
    6    5    3    3       -0.2580021688
    6    5    4    4       -0.2859547654
    6    5    5    4        0.0344729687
    6    5    6    4        0.0126478133
    6    5    5    5       -0.1270963072
    6    5    6    5        0.2389441970
    7    5    1    1        0.1061337463
    7    5    4    1       -0.0022224905
    7    5    5    1       -0.0187689530
    7    5    6    1        0.0215570868
    7    5    7    1       -0.0027133507
    7    5    2    2        0.0402620511
    7    5    3    3        0.0402620536
    7    5    4    4        0.0488632915
    7    5    5    4       -0.0430123021
    7    5    6    4        0.0403024146
    7    5    7    4       -0.0323341519
    7    5    5    5        0.0315937514
    7    5    6    5       -0.0164379868
    7    5    7    5        0.0482636829
    7    5    6    6        0.0218021019
    8    5    1    1       -0.1510116647
    8    5    4    1        0.0058527733
    8    5    5    1       -0.0158296800
    8    5    6    1        0.0166565989
    8    5    7    1       -0.0088527762
    8    5    8    1        0.0096339780
    8    5    2    2       -0.0589109465
    8    5    3    3       -0.0589109509
    8    5    4    4       -0.0508902369
    8    5    5    4       -0.0894656829
    8    5    6    4        0.0703059442
    8    5    7    4        0.0281315250
    8    5    8    4       -0.0079734781
    8    5    5    5       -0.0737140893
    8    5    6    5        0.0131311253
    8    5    7    5        0.0205288149
    8    5    8    5        0.1054577146
    8    5    6    6       -0.0772551239
    8    5    7    6       -0.0411290502
    8    5    7    7       -0.0208390743
    6    6    1    1        0.8768211919
    6    6    4    1       -0.0120261393
    6    6    5    1        0.0074145855
    6    6    6    1       -0.0059710932
    6    6    2    2        0.5868932376
    6    6    3    3        0.5868932402
    6    6    4    4        0.6150345626
    6    6    5    4        0.0376849139
    6    6    6    4       -0.0355694404
    6    6    5    5        0.6193141236
    6    6    6    5       -0.0614287118
    6    6    6    6        0.6478056431
    7    6    1    1       -0.0130165999
    7    6    4    1       -0.0017822528
    7    6    5    1        0.0208928139
    7    6    6    1       -0.0232361053
    7    6    7    1        0.0074285040
    7    6    2    2        0.0022911920
    7    6    3    3        0.0022911957
    7    6    4    4       -0.0062724076
    7    6    5    4        0.0586188976
    7    6    6    4       -0.0515539052
    7    6    7    4        0.0150912850
    7    6    5    5        0.0059181901
    7    6    6    5       -0.0000472896
    7    6    7    5       -0.0407915002
    7    6    6    6        0.0076933169
    7    6    7    6        0.0465556087
    8    6    1    1        0.0890736333
    8    6    4    1       -0.0049789010
    8    6    5    1        0.0141051750
    8    6    6    1       -0.0148802628
    8    6    7    1        0.0073066076
    8    6    8    1       -0.0093689731
    8    6    2    2        0.0133547466
    8    6    3    3        0.0133547020
    8    6    4    4        0.0066054665
    8    6    5    4        0.0648361600
    8    6    6    4       -0.0539271178
    8    6    7    4       -0.0167030487
    8    6    8    4        0.0010588026
    8    6    5    5        0.0287975870
    8    6    6    5       -0.0056751004
    8    6    7    5       -0.0243821274
    8    6    8    5       -0.0717642815
    8    6    6    6        0.0422221406
    8    6    7    6        0.0328114653
    8    6    8    6        0.0584015131
    8    6    7    7       -0.0049230155
    7    7    1    1        1.1412794716
    7    7    4    1       -0.0295680319
    7    7    5    1       -0.0097387994
    7    7    6    1        0.0164993339
    7    7    7    1        0.0277155258
    7    7    2    2        0.7153791102
    7    7    3    3        0.7153791121
    7    7    4    4        0.7451849319
    7    7    5    4       -0.0516165323
    7    7    6    4        0.0056279221
    7    7    7    4       -0.1463863259
    7    7    5    5        0.5778323989
    7    7    6    5       -0.2249803604
    7    7    7    5        0.0489495216
    7    7    6    6        0.5250842064
    7    7    7    6       -0.0199732601
    7    7    7    7        0.6660316976
    8    7    1    1       -0.0668378876
    8    7    4    1        0.0094549410
    8    7    5    1        0.0061345009
    8    7    6    1       -0.0083827047
    8    7    7    1       -0.0096338029
    8    7    8    1       -0.0036863311
    8    7    2    2        0.0088504671
    8    7    3    3        0.0088504505
    8    7    4    4        0.0153277137
    8    7    5    4        0.0260249527
    8    7    6    4       -0.0193359965
    8    7    7    4        0.0000195174
    8    7    8    4       -0.0146008501
    8    7    5    5        0.0269177954
    8    7    6    5       -0.0125043118
    8    7    7    5       -0.0035764264
    8    7    8    5       -0.0243680924
    8    7    6    6        0.0270781635
    8    7    7    6        0.0094355724
    8    7    8    6        0.0178887970
    8    7    7    7        0.0077517645
    8    7    8    7        0.0336753143
    8    8    1    1        1.0495763018
    8    8    4    1       -0.0075723701
    8    8    5    1        0.0032530666
    8    8    6    1       -0.0019463395
    8    8    7    1        0.0075539449
    8    8    8    1       -0.0057875308
    8    8    2    2        0.7737158169
    8    8    3    3        0.7737162516
    8    8    4    4        0.8236588118
    8    8    5    4       -0.0239825901
    8    8    6    4       -0.0200651494
    8    8    7    4       -0.1568179059
    8    8    8    4       -0.0154355024
    8    8    5    5        0.6610072543
    8    8    6    5       -0.2598382630
    8    8    7    5        0.0246215046
    8    8    8    5       -0.0403676789
    8    8    6    6        0.5899856846
    8    8    7    6        0.0093209508
    8    8    8    6        0.0027008426
    8    8    7    7        0.6856736013
    8    8    8    7        0.0186714947
    8    8    8    8        0.8240462674
 end_two_electron_integrals
 enrep_tce =    3.2569311566176742     
  EHF(A)             =       -99.91176285
  EHF(total)         =       -99.91176285
  Shift (HFtot-HFA)  =         0.00000000
 Cpu & wall time / sec            0.4            0.4
 T1-number-of-tasks                   15

 t1 file size   =               15
 t1 file name   = ./HF.t1
 t1 file handle =       -998
 T2-number-of-boxes                  315

 t2 file size   =              315
 t2 file name   = ./HF.t2
 t2 file handle =       -996
CCSD iterations
 ---------------------------------------------------------
 Iter          Residuum       Correlation     Cpu    Wall 
 ---------------------------------------------------------
NEW TASK SCHEDULING
CCSD_T1_NTS --- OK
CCSD_T2_NTS --- OK
    1   0.9832353431698  -0.1496954348453     1.9     2.7
    2   3.5523260932798   0.1152989443468     1.9     2.7
    3  15.8728966294425  -0.7016027733973     2.0     2.7
    4  53.9073844951593   2.3120799366268     1.8     2.7
    5 386.9378323790961  -5.7180743259273     1.9     2.6
 MICROCYCLE DIIS UPDATE:                    5                    5
    6   0.1700048665715  -0.0827775612392     1.6     2.6
    7   0.8003761587480  -0.0814077092830     1.9     2.6
    8   3.9524651023154  -0.1340752836809     1.8     2.6
    9  18.9665623685157   0.1668458372167     1.8     2.6
   10 108.2610006363815  -1.2288658875590     1.8     2.6
 MICROCYCLE DIIS UPDATE:                   10                    5
   11   0.0512399508238  -0.0879567984331     1.8     2.6
   12   0.2492926216604  -0.0913353756143     1.8     2.6
   13   1.2369620818890  -0.0763359612236     1.8     2.6
   14   6.2221588689997  -0.1625174724307     1.9     2.6
   15  29.6405276319676   0.3019793275970     1.9     2.7
 MICROCYCLE DIIS UPDATE:                   15                    5
   16   0.0216376968008  -0.0894611127074     2.0     2.6
   17   0.1074274546566  -0.0910751777760     1.8     2.6
   18   0.5351539779592  -0.0829736426525     1.7     2.6
   19   2.6818479060011  -0.1236601699172     1.9     2.6
   20  13.1252468162646   0.0822125051973     1.8     2.6
 MICROCYCLE DIIS UPDATE:                   20                    5
   21   0.0052065351786  -0.0896991768151     1.9     2.7
   22   0.0257574576109  -0.0900975582345     1.9     2.6
   23   0.1284751651824  -0.0881116009196     1.8     2.7
   24   0.6422358781185  -0.0979789461391     1.9     2.6
   25   3.1936269496770  -0.0488716522134     1.9     2.7
 MICROCYCLE DIIS UPDATE:                   25                    5
   26   0.0007689209933  -0.0897596804349     1.8     2.7
   27   0.0037666192080  -0.0898068153854     1.9     2.7
   28   0.0188217910489  -0.0895409939484     1.9     2.7
   29   0.0942753799298  -0.0909394127248     1.8     2.7
   30   0.4722153697567  -0.0838318585711     1.8     2.6
 MICROCYCLE DIIS UPDATE:                   30                    5
   31   0.0000440037262  -0.0897675441526     1.9     2.6
   32   0.0000732008270  -0.0897660781677     1.7     2.6
   33   0.0002945533763  -0.0897697581363     1.7     2.6
   34   0.0014253975992  -0.0897662155993     1.7     2.6
   35   0.0072081186384  -0.0897399242368     1.8     2.6
 MICROCYCLE DIIS UPDATE:                   35                    5
   36   0.0000052374371  -0.0897674739922     1.7     2.6
   37   0.0000146334387  -0.0897675595505     1.9     2.7
   38   0.0000555279295  -0.0897669099797     1.8     2.6
   39   0.0002318103614  -0.0897705786404     1.8     2.7
   40   0.0010345759438  -0.0897521262650     1.9     2.6
 MICROCYCLE DIIS UPDATE:                   40                    5
   41   0.0000007137405  -0.0897674877222     1.7     2.6
   42   0.0000008988208  -0.0897674480622     1.8     2.6
   43   0.0000028041831  -0.0897675340505     1.8     2.6
   44   0.0000108004020  -0.0897672866696     1.9     2.7
   45   0.0000439587000  -0.0897680251218     1.8     2.6
 MICROCYCLE DIIS UPDATE:                   45                    5
   46   0.0000001361046  -0.0897674666232     2.0     2.6
   47   0.0000002813753  -0.0897674647945     1.8     2.6
   48   0.0000010520108  -0.0897674844693     1.8     2.6
   49   0.0000043874050  -0.0897674405195     1.9     2.6
   50   0.0000194174340  -0.0897675542892     1.7     2.6
 MICROCYCLE DIIS UPDATE:                   50                    5
   51   0.0000000271398  -0.0897674716000     1.9     2.7
 -----------------------------------------------------------------
 Iterations converged
 CCSD correlation energy / hartree =        -0.089767471600047
 CCSD total energy / hartree       =      -100.001530322579882

 Singles contributions

 Doubles contributions
     6a   (alpha)     6a   (beta ) ---     5a   (alpha)     5a   (beta )       -0.2691194200
     6a   (alpha)     7a   (beta ) ---     5a   (alpha)     4a   (beta )       -0.0282414621
     7a   (alpha)     6a   (beta ) ---     4a   (alpha)     5a   (beta )       -0.0282414621
     7a   (alpha)     7a   (beta ) ---     4a   (alpha)     4a   (beta )       -0.0217571347
 Ground state specification:
 exp(T)|Ref>~(1+T)|Ref>
 ------- a(p)+/a(q) strings ----------

 singles norm

 doubles norm

 Reference string
  0.96564274543080963      :(1a)+ (2a)+ (3a)+ (4a)+ (5a)+ (1b)+ (2b)+ (3b)+ (4b)+ (5b)+ |0>

 Singles strings

 Doubles strings
 -0.25987321562032634      :(6a)+ (6b)+ (5b)  (5a)  (1a)+ (2a)+ (3a)+ (4a)+ (5a)+ (1b)+ (2b)+ (3b)+ (4b)+ (5b)+ |0>
 -------------------------------------

 Parallel integral file used       3 records with       0 large values


 Task  times  cpu:       94.4s     wall:      136.6s


                                NWChem Input Module
                                -------------------


 Summary of allocated global arrays
-----------------------------------
  No active global arrays


MA_summarize_allocated_blocks: starting scan ...
MA_summarize_allocated_blocks: scan completed: 0 heap blocks, 0 stack blocks
MA usage statistics:

	allocation statistics:
					      heap	     stack
					      ----	     -----
	current number of blocks	         0	         0
	maximum number of blocks	        18	        42
	current total bytes		         0	         0
	maximum total bytes		   9520928	  26465432
	maximum total K-bytes		      9521	     26466
	maximum total M-bytes		        10	        27


                                     CITATION
                                     --------
                Please cite the following reference when publishing
                           results obtained with NWChem:

          E. Apra, E. J. Bylaska, W. A. de Jong, N. Govind, K. Kowalski,
       T. P. Straatsma, M. Valiev, H. J. J. van Dam, Y. Alexeev, J. Anchell,
       V. Anisimov, F. W. Aquino, R. Atta-Fynn, J. Autschbach, N. P. Bauman,
     J. C. Becca, D. E. Bernholdt, K. Bhaskaran-Nair, S. Bogatko, P. Borowski,
         J. Boschen, J. Brabec, A. Bruner, E. Cauet, Y. Chen, G. N. Chuev,
      C. J. Cramer, J. Daily, M. J. O. Deegan, T. H. Dunning Jr., M. Dupuis,
   K. G. Dyall, G. I. Fann, S. A. Fischer, A. Fonari, H. Fruchtl, L. Gagliardi,
      J. Garza, N. Gawande, S. Ghosh, K. Glaesemann, A. W. Gotz, J. Hammond,
       V. Helms, E. D. Hermes, K. Hirao, S. Hirata, M. Jacquelin, L. Jensen,
   B. G. Johnson, H. Jonsson, R. A. Kendall, M. Klemm, R. Kobayashi, V. Konkov,
      S. Krishnamoorthy, M. Krishnan, Z. Lin, R. D. Lins, R. J. Littlefield,
      A. J. Logsdail, K. Lopata, W. Ma, A. V. Marenich, J. Martin del Campo,
   D. Mejia-Rodriguez, J. E. Moore, J. M. Mullin, T. Nakajima, D. R. Nascimento,
    J. A. Nichols, P. J. Nichols, J. Nieplocha, A. Otero-de-la-Roza, B. Palmer,
    A. Panyala, T. Pirojsirikul, B. Peng, R. Peverati, J. Pittner, L. Pollack,
   R. M. Richard, P. Sadayappan, G. C. Schatz, W. A. Shelton, D. W. Silverstein,
   D. M. A. Smith, T. A. Soares, D. Song, M. Swart, H. L. Taylor, G. S. Thomas,
            V. Tipparaju, D. G. Truhlar, K. Tsemekhman, T. Van Voorhis,
      A. Vazquez-Mayagoitia, P. Verma, O. Villa, A. Vishnu, K. D. Vogiatzis,
        D. Wang, J. H. Weare, M. J. Williamson, T. L. Windus, K. Wolinski,
        A. T. Wong, Q. Wu, C. Yang, Q. Yu, M. Zacharias, Z. Zhang, Y. Zhao,
                                and R. J. Harrison
                        "NWChem: Past, present, and future
                         J. Chem. Phys. 152, 184102 (2020)
                               doi:10.1063/5.0004997

                                      AUTHORS
                                      -------
  E. Apra, E. J. Bylaska, N. Govind, K. Kowalski, M. Valiev, D. Mejia-Rodriguez,
       A. Kunitsa, N. P. Bauman, A. Panyala, W. A. de Jong, T. P. Straatsma,
        H. J. J. van Dam, D. Wang, T. L. Windus, J. Hammond, J. Autschbach,
    K. Bhaskaran-Nair, J. Brabec, K. Lopata, S. A. Fischer, S. Krishnamoorthy,
     M. Jacquelin, W. Ma, M. Klemm, O. Villa, Y. Chen, V. Anisimov, F. Aquino,
    S. Hirata, M. T. Hackler, Eric Hermes, L. Jensen, J. E. Moore, J. C. Becca,
      V. Konjkov, T. Risthaus, M. Malagoli, A. Marenich, A. Otero-de-la-Roza,
        J. Mullin, P. Nichols, R. Peverati, J. Pittner, Y. Zhao, P.-D. Fan,
        A. Fonari, M. J. Williamson, R. J. Harrison, J. R. Rehr, M. Dupuis,
     D. Silverstein, D. M. A. Smith, J. Nieplocha, V. Tipparaju, M. Krishnan,
     B. E. Van Kuiken, A. Vazquez-Mayagoitia, M. Swart, Q. Wu, T. Van Voorhis,
     A. A. Auer, M. Nooijen, L. D. Crosby, E. Brown, G. Cisneros, G. I. Fann,
   H. Fruchtl, J. Garza, K. Hirao, R. A. Kendall, J. A. Nichols, K. Tsemekhman,
    K. Wolinski, J. Anchell, D. E. Bernholdt, P. Borowski, T. Clark, D. Clerc,
   H. Dachsel, M. J. O. Deegan, K. Dyall, D. Elwood, E. Glendening, M. Gutowski,
   A. C. Hess, J. Jaffe, B. G. Johnson, J. Ju, R. Kobayashi, R. Kutteh, Z. Lin,
   R. Littlefield, X. Long, B. Meng, T. Nakajima, S. Niu, L. Pollack, M. Rosing,
   K. Glaesemann, G. Sandrone, M. Stave, H. Taylor, G. Thomas, J. H. van Lenthe,
                               A. T. Wong, Z. Zhang.

 Total times  cpu:       97.2s     wall:      142.5s
