 argument  1 = input.nw
  NWChem w/ OpenMP: maximum threads =    1



============================== echo of input deck ==============================
 echo
 start HF
 title "HF"

 memory total 24 gb

 geometry units bohr
 symmetry c1
        F  0.00000000  0.00000000  0.00000000
        H  0.00000000  2.9799  0.00000000
 end

 basis spherical
   * library cc-pVTZ
 end

 mcscf
   active  8
   actelec 10
   multiplicity 1
   maxiter 40
   vectors input HF.mos
   vectors output HF.mos
 end

 task mcscf

 scf
   vectors input HF.mos
   vectors output HF-trash.mos
   noscf
 end

 tce
   2eorb
   2emet 13
   ccsd
   maxiter 500
 end

 set tce:print_integrals T
 set tce:qorb 8
 set tce:qela 5
 set tce:qelb 5

# set tce:qducc T
# set tce:nactv 3
# set tce:nonhf T
# set tce:ducc_model 3

 set tce:printtol 0.02

 task tce
================================================================================


                                         
                                         


             Northwest Computational Chemistry Package (NWChem) 7.0.1
             --------------------------------------------------------


                    Environmental Molecular Sciences Laboratory
                       Pacific Northwest National Laboratory
                                Richland, WA 99352

                              Copyright (c) 1994-2020
                       Pacific Northwest National Laboratory
                            Battelle Memorial Institute

             NWChem is an open-source computational chemistry package
                        distributed under the terms of the
                      Educational Community License (ECL) 2.0
             A copy of the license is included with this distribution
                              in the LICENSE.TXT file

                                  ACKNOWLEDGMENT
                                  --------------

            This software and its documentation were developed at the
            EMSL at Pacific Northwest National Laboratory, a multiprogram
            national laboratory, operated for the U.S. Department of Energy
            by Battelle under Contract Number DE-AC05-76RL01830. Support
            for this work was provided by the Department of Energy Office
            of Biological and Environmental Research, Office of Basic
            Energy Sciences, and the Office of Advanced Scientific Computing.


           Job information
           ---------------

    hostname        = WE46210
    program         = /home/baum612/code/nwchem/bin/LINUX64/nwchem
    date            = Mon May 20 12:30:43 2024

    compiled        = Tue_Apr_30_12:43:26_2024
    source          = /home/baum612/code/nwchem
    nwchem branch   = 7.0.0
    nwchem revision = nwchem_on_git-4191-g39d87d64de
    ga revision     = 5.8.1
    use scalapack   = F
    input           = input.nw
    prefix          = HF.
    data base       = ./HF.db
    status          = startup
    nproc           =        1
    time left       =     -1s



           Memory information
           ------------------

    heap     =  805306362 doubles =   6144.0 Mbytes
    stack    =  805306367 doubles =   6144.0 Mbytes
    global   = 1610612736 doubles =  12288.0 Mbytes (distinct from heap & stack)
    total    = 3221225465 doubles =  24576.0 Mbytes
    verify   = yes
    hardfail = no 


           Directory information
           ---------------------

  0 permanent = .
  0 scratch   = .




                                NWChem Input Module
                                -------------------


                                        HF
                                        --
 Turning off AUTOSYM since
 SYMMETRY directive was detected!


          ------
          auto-z
          ------
     1 autoz failed with cvr_scaling = 1.2 changing to 1.3
     2 autoz failed with cvr_scaling = 1.3 changing to 1.4
     3 autoz failed with cvr_scaling = 1.4 changing to 1.5
     4 autoz failed with cvr_scaling = 1.5 changing to 1.6
     5 autoz failed with cvr_scaling = 1.6 changing to 1.7
  no constraints, skipping    0.0000000000000000     
  no constraints, skipping    0.0000000000000000     


                             Geometry "geometry" -> ""
                             -------------------------

 Output coordinates in a.u. (scale by  1.000000000 to convert to a.u.)

  No.       Tag          Charge          X              Y              Z
 ---- ---------------- ---------- -------------- -------------- --------------
    1 F                    9.0000     0.00000000    -0.29799000     0.00000000
    2 H                    1.0000     0.00000000     2.68191000     0.00000000

      Atomic Mass 
      ----------- 

      F                 18.998400
      H                  1.007825


 Effective nuclear repulsion energy (a.u.)       3.0202355784

            Nuclear Dipole moment (a.u.) 
            ----------------------------
        X                 Y               Z
 ---------------- ---------------- ----------------
     0.0000000000     0.0000000000     0.0000000000



                                Z-matrix (autoz)
                                -------- 

 Units are Angstrom for bonds and degrees for angles

      Type          Name      I     J     K     L     M      Value
      ----------- --------  ----- ----- ----- ----- ----- ----------
    1 Stretch                  1     2                       1.57690


            XYZ format geometry
            -------------------
     2
 geometry
 F                     0.00000000    -0.15768953     0.00000000
 H                     0.00000000     1.41920576     0.00000000



 Summary of "ao basis" -> "" (spherical)
 ------------------------------------------------------------------------------
       Tag                 Description            Shells   Functions and Types
 ---------------- ------------------------------  ------  ---------------------
 *                          cc-pVTZ                   on all atoms 


                      Basis "ao basis" -> "ao basis" (spherical)
                      -----
  F (Fluorine)
  ------------
            Exponent  Coefficients 
       -------------- ---------------------------------------------------------
  1 S  1.95000000E+04  0.000507
  1 S  2.92300000E+03  0.003923
  1 S  6.64500000E+02  0.020200
  1 S  1.87500000E+02  0.079010
  1 S  6.06200000E+01  0.230439
  1 S  2.14200000E+01  0.432872
  1 S  7.95000000E+00  0.349964
  1 S  8.81500000E-01 -0.007892

  2 S  1.95000000E+04 -0.000117
  2 S  2.92300000E+03 -0.000912
  2 S  6.64500000E+02 -0.004717
  2 S  1.87500000E+02 -0.019086
  2 S  6.06200000E+01 -0.059655
  2 S  2.14200000E+01 -0.140010
  2 S  7.95000000E+00 -0.176782
  2 S  8.81500000E-01  0.605043

  3 S  2.25700000E+00  1.000000

  4 S  3.04100000E-01  1.000000

  5 P  4.38800000E+01  0.016665
  5 P  9.92600000E+00  0.104472
  5 P  2.93000000E+00  0.317260

  6 P  9.13200000E-01  1.000000

  7 P  2.67200000E-01  1.000000

  8 D  3.10700000E+00  1.000000

  9 D  8.55000000E-01  1.000000

 10 F  1.91700000E+00  1.000000

  H (Hydrogen)
  ------------
            Exponent  Coefficients 
       -------------- ---------------------------------------------------------
  1 S  3.38700000E+01  0.006068
  1 S  5.09500000E+00  0.045308
  1 S  1.15900000E+00  0.202822

  2 S  3.25800000E-01  1.000000

  3 S  1.02700000E-01  1.000000

  4 P  1.40700000E+00  1.000000

  5 P  3.88000000E-01  1.000000

  6 D  1.05700000E+00  1.000000



 Summary of "ao basis" -> "ao basis" (spherical)
 ------------------------------------------------------------------------------
       Tag                 Description            Shells   Functions and Types
 ---------------- ------------------------------  ------  ---------------------
 F                          cc-pVTZ                 10       30   4s3p2d1f
 H                          cc-pVTZ                  6       14   3s2p1d



                            NWChem Direct MCSCF Module
                            --------------------------


                                        HF


     -----------------------------------
       Basis functions:             44
       Inactive shells:              0
       Active shells:                8
       Active electrons:            10
       Symmetry:                    a       
       Multiplicity:                 1
       Orbital rotations:          288
     -----------------------------------

     -----------------------------------
       E2 extrapolation:             F
       Conjugacy:                    T
       Micro CI relax:               T
       Canonical orbitals:           T
       Maximum iterations:          40
       Converge threshold:    1.00E-04
       Conjugacy resets:            20
       Initial levelshift:        0.10
     -----------------------------------

 Loading old vectors from job with title :

HF


   input molecular orbitals = ./HF.mos
  output molecular orbtials = ./HF.mos

       No. of determinants:          3136


  Starting Orbital Energies
   -26.324198    -1.534163    -0.649155    -0.649155    -0.587514    -0.094786
    -0.006084    -0.003350     0.377147     0.730655     0.730655     0.952687
     1.011886     1.011886     1.594714     2.255316     2.255316     2.271492
     2.271492     2.601598     3.400598     3.400598     3.537909     3.537909
     3.618244     3.875086     3.875086     4.160570     5.077430     5.077430
     5.314947     7.380458     7.380458     7.401803     7.401803     7.408475
     7.408475     7.465005     8.629877     8.852529     8.852529     8.901462
     8.901462     9.870627

  Orbital Symmetry Irreps
a    a    a    a    a    a    a    a    a    a    a    a    a    a    a   
a    a    a    a    a    a    a    a    a    a    a    a    a    a    a   
a    a    a    a    a    a    a    a    a    a    a    a    a    a   

 Integral file          = ./HF.aoints.0
 Record size in doubles =  65536        No. of integs per rec  =  43688
 Max. records in memory =     18        Max. records in file   = 250294
 No. of bits per label  =      8        No. of bits per value  =     64


 #quartets = 9.316D+03 #integrals = 1.251D+05 #direct =  0.0% #cached =100.0%




          %%%%% MacroIteration   1 %%%%%


          Number of sigma calls:       29
                       o<<<<< (aa):             0.00
                       o<<<<< (bb):             0.01
                       o<<<<< (ab):             0.08
                       o<<<<< (total)           0.09
                       o<<<<< (aa) ff           0.00
                       o<<<<< (aa) gop          0.00
                       o<<<<< (aa) dot          0.00
                       o<<<<< (ab) str          0.00
                       o<<<<< (ab) gath         0.00
                       o<<<<< (ab) dotab        0.00
                       o<<<<< (ab) scat         0.00
                       o<<<<< (ab) sync         0.00
                       o<<<<< Density           0.00
                       o<<<<< Density one       0.00
                       o<<<<< Density two       0.00
                       o<<<<< Density ab        0.00
                       o<<<<< Spin adapt        0.28
                       o<<<<< Symm adapt        0.00

                       o<<<<< (ab) max sync:      0.00

           >>>| Valence CI:           -103.001571758019
           >>>| MCSCF energy:          -99.981336179645
           >>>| Gradient norm:          0.339668068D-02
     --- Warning:   56 Hessian diagonals < 0.05 ---

                              ----- Line search ------

        step       energy         lsg     num-lsg   num-lsh   lsrat    time
      ------- ---------------- --------- --------- --------- ------- --------
       0.0000     -99.98133618 -1.59D-06  0.00D+00  0.00D+00 0.0D+00      0.7

          Number of sigma calls:       23
                       o<<<<< (aa):             0.00
                       o<<<<< (bb):             0.00
                       o<<<<< (ab):             0.06
                       o<<<<< (total)           0.07
                       o<<<<< (aa) ff           0.00
                       o<<<<< (aa) gop          0.00
                       o<<<<< (aa) dot          0.00
                       o<<<<< (ab) str          0.00
                       o<<<<< (ab) gath         0.00
                       o<<<<< (ab) dotab        0.00
                       o<<<<< (ab) scat         0.00
                       o<<<<< (ab) sync         0.00
                       o<<<<< Density           0.00
                       o<<<<< Density one       0.00
                       o<<<<< Density two       0.00
                       o<<<<< Density ab        0.00
                       o<<<<< Spin adapt        0.35
                       o<<<<< Symm adapt        0.00

                       o<<<<< (ab) max sync:      0.00
       1.0000     -99.98133711 -2.71D-07 -2.72D-07  1.32D-06 1.7D-01      1.1

          Number of sigma calls:       19
                       o<<<<< (aa):             0.00
                       o<<<<< (bb):             0.00
                       o<<<<< (ab):             0.07
                       o<<<<< (total)           0.07
                       o<<<<< (aa) ff           0.00
                       o<<<<< (aa) gop          0.00
                       o<<<<< (aa) dot          0.00
                       o<<<<< (ab) str          0.00
                       o<<<<< (ab) gath         0.00
                       o<<<<< (ab) dotab        0.00
                       o<<<<< (ab) scat         0.00
                       o<<<<< (ab) sync         0.00
                       o<<<<< Density           0.01
                       o<<<<< Density one       0.00
                       o<<<<< Density two       0.00
                       o<<<<< Density ab        0.01
                       o<<<<< Spin adapt        0.23
                       o<<<<< Symm adapt        0.00

                       o<<<<< (ab) max sync:      0.00
       1.2055     -99.98133714  1.62D-10  1.58D-10  1.32D-06 1.0D-04      1.5
     --- Orbitals canonicalized ---



          %%%%% MacroIteration   2 %%%%%


          Number of sigma calls:       20
                       o<<<<< (aa):             0.00
                       o<<<<< (bb):             0.00
                       o<<<<< (ab):             0.05
                       o<<<<< (total)           0.06
                       o<<<<< (aa) ff           0.00
                       o<<<<< (aa) gop          0.00
                       o<<<<< (aa) dot          0.00
                       o<<<<< (ab) str          0.00
                       o<<<<< (ab) gath         0.00
                       o<<<<< (ab) dotab        0.00
                       o<<<<< (ab) scat         0.00
                       o<<<<< (ab) sync         0.00
                       o<<<<< Density           0.00
                       o<<<<< Density one       0.00
                       o<<<<< Density two       0.00
                       o<<<<< Density ab        0.00
                       o<<<<< Spin adapt        0.18
                       o<<<<< Symm adapt        0.00

                       o<<<<< (ab) max sync:      0.00

           >>>| Valence CI:           -103.001572717819
           >>>| MCSCF energy:          -99.981337139444
           >>>| Gradient norm:          0.788047477D-03
     --- Warning:   56 Hessian diagonals < 0.05 ---
     --- Conjugacy reset ---

                              ----- Line search ------

        step       energy         lsg     num-lsg   num-lsh   lsrat    time
      ------- ---------------- --------- --------- --------- ------- --------
       0.0000     -99.98133714 -6.90D-08  0.00D+00  0.00D+00 0.0D+00      1.8

          Number of sigma calls:       15
                       o<<<<< (aa):             0.00
                       o<<<<< (bb):             0.00
                       o<<<<< (ab):             0.04
                       o<<<<< (total)           0.04
                       o<<<<< (aa) ff           0.00
                       o<<<<< (aa) gop          0.00
                       o<<<<< (aa) dot          0.00
                       o<<<<< (ab) str          0.00
                       o<<<<< (ab) gath         0.00
                       o<<<<< (ab) dotab        0.00
                       o<<<<< (ab) scat         0.00
                       o<<<<< (ab) sync         0.00
                       o<<<<< Density           0.00
                       o<<<<< Density one       0.00
                       o<<<<< Density two       0.00
                       o<<<<< Density ab        0.00
                       o<<<<< Spin adapt        0.12
                       o<<<<< Symm adapt        0.00

                       o<<<<< (ab) max sync:      0.00
       1.0000     -99.98133718 -1.70D-08 -1.70D-08  5.20D-08 2.5D-01      2.0

          Number of sigma calls:       14
                       o<<<<< (aa):             0.00
                       o<<<<< (bb):             0.00
                       o<<<<< (ab):             0.03
                       o<<<<< (total)           0.03
                       o<<<<< (aa) ff           0.00
                       o<<<<< (aa) gop          0.00
                       o<<<<< (aa) dot          0.00
                       o<<<<< (ab) str          0.00
                       o<<<<< (ab) gath         0.00
                       o<<<<< (ab) dotab        0.00
                       o<<<<< (ab) scat         0.00
                       o<<<<< (ab) sync         0.00
                       o<<<<< Density           0.00
                       o<<<<< Density one       0.00
                       o<<<<< Density two       0.00
                       o<<<<< Density ab        0.00
                       o<<<<< Spin adapt        0.13
                       o<<<<< Symm adapt        0.00

                       o<<<<< (ab) max sync:      0.00
       1.3275     -99.98133719 -1.34D-12 -1.86D-12  5.20D-08 1.9D-05      2.3



          %%%%% MacroIteration   3 %%%%%


          Number of sigma calls:        1
                       o<<<<< (aa):             0.00
                       o<<<<< (bb):             0.00
                       o<<<<< (ab):             0.00
                       o<<<<< (total)           0.00
                       o<<<<< (aa) ff           0.00
                       o<<<<< (aa) gop          0.00
                       o<<<<< (aa) dot          0.00
                       o<<<<< (ab) str          0.00
                       o<<<<< (ab) gath         0.00
                       o<<<<< (ab) dotab        0.00
                       o<<<<< (ab) scat         0.00
                       o<<<<< (ab) sync         0.00
                       o<<<<< Density           0.00
                       o<<<<< Density one       0.00
                       o<<<<< Density two       0.00
                       o<<<<< Density ab        0.00
                       o<<<<< Spin adapt        0.00
                       o<<<<< Symm adapt        0.00

                       o<<<<< (ab) max sync:      0.00

           >>>| Valence CI:           -103.001572763640
           >>>| MCSCF energy:          -99.981337185265
           >>>| Gradient norm:          0.198254116D-03
     --- Warning:   56 Hessian diagonals < 0.05 ---

                              ----- Line search ------

        step       energy         lsg     num-lsg   num-lsh   lsrat    time
      ------- ---------------- --------- --------- --------- ------- --------
       0.0000     -99.98133719 -7.03D-09  0.00D+00  0.00D+00 0.0D+00      2.3

          Number of sigma calls:       14
                       o<<<<< (aa):             0.00
                       o<<<<< (bb):             0.00
                       o<<<<< (ab):             0.04
                       o<<<<< (total)           0.05
                       o<<<<< (aa) ff           0.00
                       o<<<<< (aa) gop          0.00
                       o<<<<< (aa) dot          0.00
                       o<<<<< (ab) str          0.00
                       o<<<<< (ab) gath         0.00
                       o<<<<< (ab) dotab        0.00
                       o<<<<< (ab) scat         0.00
                       o<<<<< (ab) sync         0.00
                       o<<<<< Density           0.01
                       o<<<<< Density one       0.00
                       o<<<<< Density two       0.00
                       o<<<<< Density ab        0.01
                       o<<<<< Spin adapt        0.19
                       o<<<<< Symm adapt        0.00

                       o<<<<< (ab) max sync:      0.00
       1.0000     -99.98133719 -2.00D-09 -2.00D-09  5.03D-09 2.8D-01      2.6

          Number of sigma calls:       13
                       o<<<<< (aa):             0.00
                       o<<<<< (bb):             0.00
                       o<<<<< (ab):             0.04
                       o<<<<< (total)           0.04
                       o<<<<< (aa) ff           0.00
                       o<<<<< (aa) gop          0.00
                       o<<<<< (aa) dot          0.00
                       o<<<<< (ab) str          0.00
                       o<<<<< (ab) gath         0.00
                       o<<<<< (ab) dotab        0.00
                       o<<<<< (ab) scat         0.00
                       o<<<<< (ab) sync         0.00
                       o<<<<< Density           0.01
                       o<<<<< Density one       0.00
                       o<<<<< Density two       0.00
                       o<<<<< Density ab        0.01
                       o<<<<< Spin adapt        0.18
                       o<<<<< Symm adapt        0.00

                       o<<<<< (ab) max sync:      0.00
       1.3968     -99.98133719 -1.69D-13 -1.55D-12  5.03D-09 2.4D-05      2.9



          %%%%% MacroIteration   4 %%%%%


          Number of sigma calls:        1
                       o<<<<< (aa):             0.00
                       o<<<<< (bb):             0.00
                       o<<<<< (ab):             0.00
                       o<<<<< (total)           0.00
                       o<<<<< (aa) ff           0.00
                       o<<<<< (aa) gop          0.00
                       o<<<<< (aa) dot          0.00
                       o<<<<< (ab) str          0.00
                       o<<<<< (ab) gath         0.00
                       o<<<<< (ab) dotab        0.00
                       o<<<<< (ab) scat         0.00
                       o<<<<< (ab) sync         0.00
                       o<<<<< Density           0.01
                       o<<<<< Density one       0.00
                       o<<<<< Density two       0.00
                       o<<<<< Density ab        0.00
                       o<<<<< Spin adapt        0.00
                       o<<<<< Symm adapt        0.00

                       o<<<<< (ab) max sync:      0.00

           >>>| Valence CI:           -103.001572768548
           >>>| MCSCF energy:          -99.981337190173
           >>>| Gradient norm:          0.786506851D-04




     ==============================
            MCSCF Converged
     ==============================



          Canonical Eigenvalues

              1      
    1  -26.3246
    2   -1.5343
    3   -0.6495
    4   -0.6495
    5   -0.5864
    6   -0.0956
    7   -0.0061
    8   -0.0033
    9    0.3772
   10    0.7305
   11    0.7305
   12    0.9512
   13    1.0115
   14    1.0115
   15    1.5921
   16    2.2551
   17    2.2551
   18    2.2713
   19    2.2713
   20    2.6013
   21    3.4007
   22    3.4007
   23    3.5354
   24    3.5354
   25    3.6168
   26    3.8747
   27    3.8747
   28    4.1592
   29    5.0771
   30    5.0771
   31    5.3066
   32    7.3801
   33    7.3801
   34    7.4002
   35    7.4002
   36    7.4082
   37    7.4082
   38    7.4623
   39    8.6234
   40    8.8521
   41    8.8521
   42    8.8994
   43    8.8994
   44    9.8654


          Converged CI vector

   Index           Coefficient          Config. Occupation
         1         -0.93315462          1  2  3  4  5  1  2  3  4  5
         2         -0.13724695          1  2  3  4  5  1  2  3  4  6
        57         -0.13724695          1  2  3  4  6  1  2  3  4  5
        58          0.29169897          1  2  3  4  6  1  2  3  4  6
        66         -0.02314954          1  2  3  4  6  1  3  4  5  7
      1181         -0.02193933          1  2  3  4  8  1  3  4  5  6
       246         -0.02193933          1  3  4  5  6  1  2  3  4  8
       506         -0.02314954          1  3  4  5  7  1  2  3  4  6

          Number of sigma calls:        1
                       o<<<<< (aa):             0.00
                       o<<<<< (bb):             0.00
                       o<<<<< (ab):             0.00
                       o<<<<< (total)           0.00
                       o<<<<< (aa) ff           0.00
                       o<<<<< (aa) gop          0.00
                       o<<<<< (aa) dot          0.00
                       o<<<<< (ab) str          0.00
                       o<<<<< (ab) gath         0.00
                       o<<<<< (ab) dotab        0.00
                       o<<<<< (ab) scat         0.00
                       o<<<<< (ab) sync         0.00
                       o<<<<< Density           0.00
                       o<<<<< Density one       0.00
                       o<<<<< Density two       0.00
                       o<<<<< Density ab        0.00
                       o<<<<< Spin adapt        0.00
                       o<<<<< Symm adapt        0.00

                       o<<<<< (ab) max sync:      0.00



          Natural orbital occupation numbers

              1      
    1    2.0000
    2    1.9993
    3    1.9992
    4    1.9947
    5    1.8058
    6    0.1946
    7    0.0041
    8    0.0023


          Number of sigma calls:       29
                       o<<<<< (aa):             0.00
                       o<<<<< (bb):             0.01
                       o<<<<< (ab):             0.07
                       o<<<<< (total)           0.08
                       o<<<<< (aa) ff           0.00
                       o<<<<< (aa) gop          0.00
                       o<<<<< (aa) dot          0.00
                       o<<<<< (ab) str          0.00
                       o<<<<< (ab) gath         0.00
                       o<<<<< (ab) dotab        0.00
                       o<<<<< (ab) scat         0.00
                       o<<<<< (ab) sync         0.00
                       o<<<<< Density           0.00
                       o<<<<< Density one       0.00
                       o<<<<< Density two       0.00
                       o<<<<< Density ab        0.00
                       o<<<<< Spin adapt        0.29
                       o<<<<< Symm adapt        0.00

                       o<<<<< (ab) max sync:      0.00


       Final MCSCF results 
       ------------------- 

       Total MCSCF energy =    -99.981337190173
            Gradient norm =      7.9D-05

    CPU time for solution =      3.3s
   Wall time for solution =      6.6s



                        Analysis of MCSCF natural orbitals
                        ----------------------------------

 Vector    1  Occ=1.999983D+00  E=-2.632463D+01  Symmetry=a
              MO Center=  1.4D-13, -1.6D-01, -1.0D-13, r^2= 1.2D-02
   Bfn.  Coefficient  Atom+Function         Bfn.  Coefficient  Atom+Function  
  ----- ------------  ---------------      ----- ------------  ---------------
     1      0.976033  1 F  s          

 Vector    2  Occ=1.999250D+00  E=-1.534345D+00  Symmetry=a
              MO Center= -4.8D-15, -1.5D-01, -1.1D-12, r^2= 4.5D-01
   Bfn.  Coefficient  Atom+Function         Bfn.  Coefficient  Atom+Function  
  ----- ------------  ---------------      ----- ------------  ---------------
    10      0.474843  1 F  pz                 7      0.391155  1 F  pz         
    13      0.354929  1 F  pz         

 Vector    3  Occ=1.999250D+00  E=-6.495060D-01  Symmetry=a
              MO Center=  7.7D-13, -1.5D-01, -9.3D-15, r^2= 4.5D-01
   Bfn.  Coefficient  Atom+Function         Bfn.  Coefficient  Atom+Function  
  ----- ------------  ---------------      ----- ------------  ---------------
     8      0.474843  1 F  px                 5      0.391155  1 F  px         
    11      0.354929  1 F  px         

 Vector    4  Occ=1.994691D+00  E=-6.495059D-01  Symmetry=a
              MO Center= -9.1D-13, -1.8D-01,  1.1D-12, r^2= 3.5D-01
   Bfn.  Coefficient  Atom+Function         Bfn.  Coefficient  Atom+Function  
  ----- ------------  ---------------      ----- ------------  ---------------
     2      0.574114  1 F  s                  4      0.381116  1 F  s          
     3      0.170472  1 F  s          

 Vector    5  Occ=1.805811D+00  E=-5.864313D-01  Symmetry=a
              MO Center= -4.5D-14,  4.3D-01,  3.2D-14, r^2= 1.0D+00
   Bfn.  Coefficient  Atom+Function         Bfn.  Coefficient  Atom+Function  
  ----- ------------  ---------------      ----- ------------  ---------------
     9      0.358569  1 F  py                32      0.297090  2 H  s          
     6      0.290490  1 F  py                12      0.251696  1 F  py         
    33      0.163488  2 H  s          

 Vector    6  Occ=1.945641D-01  E=-9.558742D-02  Symmetry=a
              MO Center=  2.5D-15,  7.9D-01,  4.7D-15, r^2= 1.1D+00
   Bfn.  Coefficient  Atom+Function         Bfn.  Coefficient  Atom+Function  
  ----- ------------  ---------------      ----- ------------  ---------------
    32      0.491102  2 H  s                  9     -0.410836  1 F  py         
     6     -0.338732  1 F  py                33      0.217400  2 H  s          
    31      0.215837  2 H  s          

 Vector    7  Occ=4.101987D-03  E=-6.069165D-03  Symmetry=a
              MO Center=  1.6D-15, -2.4D-01,  1.3D-14, r^2= 7.8D-01
   Bfn.  Coefficient  Atom+Function         Bfn.  Coefficient  Atom+Function  
  ----- ------------  ---------------      ----- ------------  ---------------
     4      1.280995  1 F  s                  3     -0.720071  1 F  s          
     2     -0.683084  1 F  s                 23      0.232402  1 F  d  2       

 Vector    8  Occ=2.349138D-03  E=-3.347766D-03  Symmetry=a
              MO Center=  1.1D-14, -2.8D-01,  6.2D-15, r^2= 5.0D-01
   Bfn.  Coefficient  Atom+Function         Bfn.  Coefficient  Atom+Function  
  ----- ------------  ---------------      ----- ------------  ---------------
    23      0.569934  1 F  d  2               3      0.362490  1 F  s          
     4     -0.329075  1 F  s                 21      0.329036  1 F  d  0       
    18      0.307212  1 F  d  2              12      0.238325  1 F  py         
     6     -0.222201  1 F  py                16      0.177358  1 F  d  0       

 Vector    9  Occ=0.000000D+00  E= 3.772078D-01  Symmetry=a
              MO Center=  1.3D-14,  1.7D+00,  1.3D-14, r^2= 3.2D+00
   Bfn.  Coefficient  Atom+Function         Bfn.  Coefficient  Atom+Function  
  ----- ------------  ---------------      ----- ------------  ---------------
    33      1.749207  2 H  s                 32     -1.161378  2 H  s          
     4     -0.578167  1 F  s                 12     -0.282461  1 F  py         
     2      0.181966  1 F  s          

 Vector   10  Occ=0.000000D+00  E= 7.304767D-01  Symmetry=a
              MO Center=  1.5D-14,  1.2D+00,  7.5D-16, r^2= 1.2D+00
   Bfn.  Coefficient  Atom+Function         Bfn.  Coefficient  Atom+Function  
  ----- ------------  ---------------      ----- ------------  ---------------
    37      0.938753  2 H  px                11      0.310459  1 F  px         
     8     -0.282459  1 F  px         

 Vector   11  Occ=0.000000D+00  E= 7.304767D-01  Symmetry=a
              MO Center=  1.1D-15,  1.2D+00,  1.2D-14, r^2= 1.2D+00
   Bfn.  Coefficient  Atom+Function         Bfn.  Coefficient  Atom+Function  
  ----- ------------  ---------------      ----- ------------  ---------------
    39      0.938753  2 H  pz                13      0.310459  1 F  pz         
    10     -0.282459  1 F  pz         

 Vector   12  Occ=0.000000D+00  E= 9.511627D-01  Symmetry=a
              MO Center=  1.4D-14,  1.1D+00, -3.3D-15, r^2= 1.7D+00
   Bfn.  Coefficient  Atom+Function         Bfn.  Coefficient  Atom+Function  
  ----- ------------  ---------------      ----- ------------  ---------------
    38      0.857822  2 H  py                12     -0.522056  1 F  py         
    32      0.510063  2 H  s                  9      0.441011  1 F  py         
    33     -0.352943  2 H  s                  4      0.298260  1 F  s          
     6      0.157673  1 F  py         

 Vector   13  Occ=0.000000D+00  E= 1.011507D+00  Symmetry=a
              MO Center= -1.8D-14,  9.9D-04,  5.7D-16, r^2= 1.8D+00
   Bfn.  Coefficient  Atom+Function         Bfn.  Coefficient  Atom+Function  
  ----- ------------  ---------------      ----- ------------  ---------------
    11      1.189870  1 F  px                 8     -0.683519  1 F  px         
    37     -0.537485  2 H  px                 5     -0.226432  1 F  px         

 Vector   14  Occ=0.000000D+00  E= 1.011507D+00  Symmetry=a
              MO Center=  9.9D-16,  9.9D-04,  3.2D-15, r^2= 1.8D+00
   Bfn.  Coefficient  Atom+Function         Bfn.  Coefficient  Atom+Function  
  ----- ------------  ---------------      ----- ------------  ---------------
    13      1.189870  1 F  pz                10     -0.683519  1 F  pz         
    39     -0.537485  2 H  pz                 7     -0.226432  1 F  pz         

 Vector   15  Occ=0.000000D+00  E= 1.592128D+00  Symmetry=a
              MO Center=  4.2D-15,  4.1D-01,  2.8D-15, r^2= 2.5D+00
   Bfn.  Coefficient  Atom+Function         Bfn.  Coefficient  Atom+Function  
  ----- ------------  ---------------      ----- ------------  ---------------
    12      1.695157  1 F  py                 4      1.388639  1 F  s          
    38      1.334176  2 H  py                 2     -0.584988  1 F  s          
     9     -0.559031  1 F  py                33     -0.509839  2 H  s          
    32     -0.444929  2 H  s                 23     -0.351093  1 F  d  2       
    31     -0.239225  2 H  s                  1     -0.228061  1 F  s          

 Vector   16  Occ=0.000000D+00  E= 2.255145D+00  Symmetry=a
              MO Center= -7.1D-16,  1.3D-02,  2.8D-15, r^2= 8.3D-01
   Bfn.  Coefficient  Atom+Function         Bfn.  Coefficient  Atom+Function  
  ----- ------------  ---------------      ----- ------------  ---------------
    20      0.965491  1 F  d -1              41     -0.212456  2 H  d -1       
    39     -0.177778  2 H  pz         

 Vector   17  Occ=0.000000D+00  E= 2.255145D+00  Symmetry=a
              MO Center= -5.8D-16,  1.3D-02,  2.9D-15, r^2= 8.3D-01
   Bfn.  Coefficient  Atom+Function         Bfn.  Coefficient  Atom+Function  
  ----- ------------  ---------------      ----- ------------  ---------------
    19      0.965491  1 F  d -2              40     -0.212456  2 H  d -2       
    37     -0.177778  2 H  px         

 Vector   18  Occ=0.000000D+00  E= 2.271311D+00  Symmetry=a
              MO Center=  8.3D-15, -1.5D-01,  1.0D-14, r^2= 5.8D-01
   Bfn.  Coefficient  Atom+Function         Bfn.  Coefficient  Atom+Function  
  ----- ------------  ---------------      ----- ------------  ---------------
    22      1.003884  1 F  d  1       


 Wrote Lagrangian and 1- and 2-particle density matrices to ./HF.mcpdm


     Multipole analysis of the density
     ---------------------------------

     L   x y z        total        nuclear
     -   - - -        -----        -------
     0   0 0 0     -0.000000     10.000000

     1   1 0 0      0.000000      0.000000
     1   0 1 0      0.674291      0.000000
     1   0 0 1      0.000000      0.000000

     2   2 0 0     -4.462343      0.000000
     2   1 1 0      0.000000      0.000000
     2   1 0 1      0.000000      0.000000
     2   0 2 0     -1.872959      7.991824
     2   0 1 1      0.000000      0.000000
     2   0 0 2     -4.462344      0.000000


  Mulliken analysis of the total density
  --------------------------------------

    Atom       Charge   Shell Charges
 -----------   ------   -------------------------------------------------------
    1 F    9     9.21   1.95  1.08  0.28  0.67  1.50  2.32  1.40  0.00  0.00  0.00
    2 H    1     0.79   0.14  0.43  0.19  0.00  0.02  0.00

    Mulliken analysis of the active space density
    ---------------------------------------------

    Atom       Charge   Shell Charges
 -----------   ------   -------------------------------------------------------
    1 F    9     9.21   1.95  1.08  0.28  0.67  1.50  2.32  1.40  0.00  0.00  0.00
    2 H    1     0.79   0.14  0.43  0.19  0.00  0.02  0.00

 Parallel integral file used       3 records with       0 large values


 Task  times  cpu:        3.4s     wall:        6.6s


                                NWChem Input Module
                                -------------------


                                 NWChem SCF Module
                                 -----------------


                                        HF



  ao basis        = "ao basis"
  functions       =    44
  atoms           =     2
  closed shells   =     5
  open shells     =     0
  charge          =   0.00
  wavefunction    = RHF 
  input vectors   = ./HF.mos
  output vectors  = ./HF-trash.mos
  use symmetry    = F
  symmetry adapt  = F


 Summary of "ao basis" -> "ao basis" (spherical)
 ------------------------------------------------------------------------------
       Tag                 Description            Shells   Functions and Types
 ---------------- ------------------------------  ------  ---------------------
 F                          cc-pVTZ                 10       30   4s3p2d1f
 H                          cc-pVTZ                  6       14   3s2p1d



 Forming initial guess at       6.6s


 Loading old vectors from job with title :

HF


 Starting SCF solution at       6.6s



 ----------------------------------------------
         Quadratically convergent ROHF

 Convergence threshold     :          1.000E-04
 Maximum no. of iterations :           30
 Final Fock-matrix accuracy:          1.000E-07
 ----------------------------------------------


 Integral file          = ./HF.aoints.0
 Record size in doubles =  65536        No. of integs per rec  =  43688
 Max. records in memory =     18        Max. records in file   = 250303
 No. of bits per label  =      8        No. of bits per value  =     64


 #quartets = 9.316D+03 #integrals = 1.251D+05 #direct =  0.0% #cached =100.0%



       Final RHF  results 
       ------------------ 

         Total SCF energy =    -99.877530552547
      One-electron energy =   -146.459501688999
      Two-electron energy =     43.561735558077
 Nuclear repulsion energy =      3.020235578375

        Time for solution =      0.0s


             Final eigenvalues
             -----------------

              1      
    1  -26.3246
    2   -1.5343
    3   -0.6495
    4   -0.6495
    5   -0.5864
    6   -0.0956
    7   -0.0061
    8   -0.0033
    9    0.3772
   10    0.7305
   11    0.7305
   12    0.9512
   13    1.0115
   14    1.0115
   15    1.5921

                       ROHF Final Molecular Orbital Analysis
                       -------------------------------------

 Vector    2  Occ=2.000000D+00  E=-1.534345D+00
              MO Center= -4.8D-15, -1.5D-01, -1.1D-12, r^2= 4.5D-01
   Bfn.  Coefficient  Atom+Function         Bfn.  Coefficient  Atom+Function  
  ----- ------------  ---------------      ----- ------------  ---------------
    10      0.474843  1 F  pz                 7      0.391155  1 F  pz         
    13      0.354929  1 F  pz         

 Vector    3  Occ=2.000000D+00  E=-6.495060D-01
              MO Center=  7.7D-13, -1.5D-01, -9.3D-15, r^2= 4.5D-01
   Bfn.  Coefficient  Atom+Function         Bfn.  Coefficient  Atom+Function  
  ----- ------------  ---------------      ----- ------------  ---------------
     8      0.474843  1 F  px                 5      0.391155  1 F  px         
    11      0.354929  1 F  px         

 Vector    4  Occ=2.000000D+00  E=-6.495059D-01
              MO Center= -9.1D-13, -1.8D-01,  1.1D-12, r^2= 3.5D-01
   Bfn.  Coefficient  Atom+Function         Bfn.  Coefficient  Atom+Function  
  ----- ------------  ---------------      ----- ------------  ---------------
     2      0.574114  1 F  s                  4      0.381116  1 F  s          
     3      0.170472  1 F  s          

 Vector    5  Occ=2.000000D+00  E=-5.864313D-01
              MO Center= -4.5D-14,  4.3D-01,  3.2D-14, r^2= 1.0D+00
   Bfn.  Coefficient  Atom+Function         Bfn.  Coefficient  Atom+Function  
  ----- ------------  ---------------      ----- ------------  ---------------
     9      0.358569  1 F  py                32      0.297090  2 H  s          
     6      0.290490  1 F  py                12      0.251696  1 F  py         
    33      0.163488  2 H  s          

 Vector    6  Occ=0.000000D+00  E=-9.558742D-02
              MO Center=  2.5D-15,  7.9D-01,  4.7D-15, r^2= 1.1D+00
   Bfn.  Coefficient  Atom+Function         Bfn.  Coefficient  Atom+Function  
  ----- ------------  ---------------      ----- ------------  ---------------
    32      0.491102  2 H  s                  9     -0.410836  1 F  py         
     6     -0.338732  1 F  py                33      0.217400  2 H  s          
    31      0.215837  2 H  s          

 Vector    7  Occ=0.000000D+00  E=-6.069165D-03
              MO Center=  1.6D-15, -2.4D-01,  1.3D-14, r^2= 7.8D-01
   Bfn.  Coefficient  Atom+Function         Bfn.  Coefficient  Atom+Function  
  ----- ------------  ---------------      ----- ------------  ---------------
     4      1.280995  1 F  s                  3     -0.720071  1 F  s          
     2     -0.683084  1 F  s                 23      0.232402  1 F  d  2       

 Vector    8  Occ=0.000000D+00  E=-3.347766D-03
              MO Center=  1.1D-14, -2.8D-01,  6.2D-15, r^2= 5.0D-01
   Bfn.  Coefficient  Atom+Function         Bfn.  Coefficient  Atom+Function  
  ----- ------------  ---------------      ----- ------------  ---------------
    23      0.569934  1 F  d  2               3      0.362490  1 F  s          
     4     -0.329075  1 F  s                 21      0.329036  1 F  d  0       
    18      0.307212  1 F  d  2              12      0.238325  1 F  py         
     6     -0.222201  1 F  py                16      0.177358  1 F  d  0       

 Vector    9  Occ=0.000000D+00  E= 3.772078D-01
              MO Center=  1.3D-14,  1.7D+00,  1.3D-14, r^2= 3.2D+00
   Bfn.  Coefficient  Atom+Function         Bfn.  Coefficient  Atom+Function  
  ----- ------------  ---------------      ----- ------------  ---------------
    33      1.749207  2 H  s                 32     -1.161378  2 H  s          
     4     -0.578167  1 F  s                 12     -0.282461  1 F  py         
     2      0.181966  1 F  s          

 Vector   10  Occ=0.000000D+00  E= 7.304767D-01
              MO Center=  1.5D-14,  1.2D+00,  7.5D-16, r^2= 1.2D+00
   Bfn.  Coefficient  Atom+Function         Bfn.  Coefficient  Atom+Function  
  ----- ------------  ---------------      ----- ------------  ---------------
    37      0.938753  2 H  px                11      0.310459  1 F  px         
     8     -0.282459  1 F  px         

 Vector   11  Occ=0.000000D+00  E= 7.304767D-01
              MO Center=  1.1D-15,  1.2D+00,  1.2D-14, r^2= 1.2D+00
   Bfn.  Coefficient  Atom+Function         Bfn.  Coefficient  Atom+Function  
  ----- ------------  ---------------      ----- ------------  ---------------
    39      0.938753  2 H  pz                13      0.310459  1 F  pz         
    10     -0.282459  1 F  pz         

 Vector   12  Occ=0.000000D+00  E= 9.511627D-01
              MO Center=  1.4D-14,  1.1D+00, -3.3D-15, r^2= 1.7D+00
   Bfn.  Coefficient  Atom+Function         Bfn.  Coefficient  Atom+Function  
  ----- ------------  ---------------      ----- ------------  ---------------
    38      0.857822  2 H  py                12     -0.522056  1 F  py         
    32      0.510063  2 H  s                  9      0.441011  1 F  py         
    33     -0.352943  2 H  s                  4      0.298260  1 F  s          
     6      0.157673  1 F  py         

 Vector   13  Occ=0.000000D+00  E= 1.011507D+00
              MO Center= -1.8D-14,  9.9D-04,  5.7D-16, r^2= 1.8D+00
   Bfn.  Coefficient  Atom+Function         Bfn.  Coefficient  Atom+Function  
  ----- ------------  ---------------      ----- ------------  ---------------
    11      1.189870  1 F  px                 8     -0.683519  1 F  px         
    37     -0.537485  2 H  px                 5     -0.226432  1 F  px         

 Vector   14  Occ=0.000000D+00  E= 1.011507D+00
              MO Center=  9.9D-16,  9.9D-04,  3.2D-15, r^2= 1.8D+00
   Bfn.  Coefficient  Atom+Function         Bfn.  Coefficient  Atom+Function  
  ----- ------------  ---------------      ----- ------------  ---------------
    13      1.189870  1 F  pz                10     -0.683519  1 F  pz         
    39     -0.537485  2 H  pz                 7     -0.226432  1 F  pz         

 Vector   15  Occ=0.000000D+00  E= 1.592128D+00
              MO Center=  4.2D-15,  4.1D-01,  2.8D-15, r^2= 2.5D+00
   Bfn.  Coefficient  Atom+Function         Bfn.  Coefficient  Atom+Function  
  ----- ------------  ---------------      ----- ------------  ---------------
    12      1.695157  1 F  py                 4      1.388639  1 F  s          
    38      1.334176  2 H  py                 2     -0.584988  1 F  s          
     9     -0.559031  1 F  py                33     -0.509839  2 H  s          
    32     -0.444929  2 H  s                 23     -0.351093  1 F  d  2       
    31     -0.239225  2 H  s                  1     -0.228061  1 F  s          


 center of mass
 --------------
 x =   0.00000000 y =  -0.14787584 z =   0.00000000

 moments of inertia (a.u.)
 ------------------
           8.498462962884           0.000000000000           0.000000000000
           0.000000000000           0.000000000000           0.000000000000
           0.000000000000           0.000000000000           8.498462962884

  Mulliken analysis of the total density
  --------------------------------------

    Atom       Charge   Shell Charges
 -----------   ------   -------------------------------------------------------
    1 F    9     9.25   1.95  1.09  0.27  0.67  1.50  2.33  1.44  0.00  0.00  0.00
    2 H    1     0.75   0.13  0.41  0.18  0.00  0.02  0.00

       Multipole analysis of the density wrt the origin
       ------------------------------------------------

     L   x y z        total         open         nuclear
     -   - - -        -----         ----         -------
     0   0 0 0     -0.000000      0.000000     10.000000

     1   1 0 0      0.000000      0.000000      0.000000
     1   0 1 0      0.808087      0.000000      0.000000
     1   0 0 1      0.000000      0.000000      0.000000

     2   2 0 0     -4.459367      0.000000      0.000000
     2   1 1 0      0.000000      0.000000      0.000000
     2   1 0 1      0.000000      0.000000      0.000000
     2   0 2 0     -1.506054      0.000000      7.991824
     2   0 1 1      0.000000      0.000000      0.000000
     2   0 0 2     -4.459368      0.000000      0.000000


 Parallel integral file used       3 records with       0 large values

 ------------------------------------
     Number of active orbitals      8
     Number of active alpha electrons      5
     Number of active beta electrons       5
 ------------------------------------
                   NWChem Extensible Many-Electron Theory Module
                   ---------------------------------------------

              ======================================================
                   This portion of the program was automatically
                  generated by a Tensor Contraction Engine (TCE).
                  The development of this portion of the program
                 and TCE was supported by US Department of Energy,
                Office of Science, Office of Basic Energy Science.
                      TCE is a product of Battelle and PNNL.
              Please cite: S.Hirata, J.Phys.Chem.A 107, 9887 (2003).
              ======================================================

                                        HF


            General Information
            -------------------
      Number of processors :     1
         Wavefunction type : Restricted Hartree-Fock
          No. of electrons :    10
           Alpha electrons :     5
            Beta electrons :     5
           No. of orbitals :    88
            Alpha orbitals :    44
             Beta orbitals :    44
        Alpha frozen cores :     0
         Beta frozen cores :     0
     Alpha frozen virtuals :    36
      Beta frozen virtuals :    36
         Spin multiplicity : singlet 
    Number of AO functions :    44
       Number of AO shells :    16
        Use of symmetry is : off
      Symmetry adaption is : off
         Schwarz screening : 0.10D-09

          Correlation Information
          -----------------------
          Calculation type : Coupled-cluster singles & doubles                           
   Perturbative correction : none                                                        
            Max iterations :      500
        Residual threshold : 0.10D-06
     T(0) DIIS level shift : 0.00D+00
     L(0) DIIS level shift : 0.00D+00
     T(1) DIIS level shift : 0.00D+00
     L(1) DIIS level shift : 0.00D+00
     T(R) DIIS level shift : 0.00D+00
     T(I) DIIS level shift : 0.00D+00
   CC-T/L Amplitude update :  5-th order DIIS
                I/O scheme : Global Array Library
        L-threshold :  0.10D-06
        EOM-threshold :  0.10D-06
 no EOMCCSD initial starts read in
 TCE RESTART OPTIONS
 READ_INT:   F
 WRITE_INT:  F
 READ_TA:    F
 WRITE_TA:   F
 READ_XA:    F
 WRITE_XA:   F
 READ_IN3:   F
 WRITE_IN3:  F
 SLICE:      F
 D4D5:       F
 quantumc:   T
 qrotation:  F
 pwtce:      F
 qducc:      F
 nacto:                         0
 nrotv:                         0
 nrot:                          0

            Memory Information
            ------------------
          Available GA space size is    1610610800 doubles
          Available MA space size is    1610610316 doubles

 Maximum block size supplied by input
 Maximum block size         1 doubles

 tile_dim =      1

 Block   Spin    Irrep     Size     Offset   Alpha
 -------------------------------------------------
   1    alpha     a      1 doubles       0       1
   2    alpha     a      1 doubles       1       2
   3    alpha     a      1 doubles       2       3
   4    alpha     a      1 doubles       3       4
   5    alpha     a      1 doubles       4       5
   6    beta      a      1 doubles       5       1
   7    beta      a      1 doubles       6       2
   8    beta      a      1 doubles       7       3
   9    beta      a      1 doubles       8       4
  10    beta      a      1 doubles       9       5
  11    alpha     a      1 doubles      10      11
  12    alpha     a      1 doubles      11      12
  13    alpha     a      1 doubles      12      13
  14    beta      a      1 doubles      13      11
  15    beta      a      1 doubles      14      12
  16    beta      a      1 doubles      15      13

 Global array virtual files algorithm will be used

 Parallel file system coherency ......... OK

 Integral file          = ./HF.aoints.0
 Record size in doubles =  65536        No. of integs per rec  =  43688
 Max. records in memory =     18        Max. records in file   = 250303
 No. of bits per label  =      8        No. of bits per value  =     64


 #quartets = 9.316D+03 #integrals = 1.251D+05 #direct =  0.0% #cached =100.0%


 Fock matrix recomputed
 1-e file size   =               64
 1-e file name   = ./HF.f1
 Cpu & wall time / sec            0.0            0.1
 4-electron integrals stored in orbital form

 v2    file size   =              666
 4-index algorithm nr.  13 is used
 imaxsize =       30
 imaxsize ichop =        0
 begin_one_electron_integrals
    1    1       -40.7604122090
    4    1         0.5814834137
    5    1        -0.0308759562
    6    1        -0.0872841081
    7    1        -0.7024748072
    8    1         0.3007153410
    2    2        -8.3407169506
    3    3        -8.3407172692
    1    4         0.5814834137
    4    4        -9.2404104349
    5    4         0.0976581687
    6    4         0.3113461480
    7    4         2.0093533214
    8    4        -0.7299462559
    1    5        -0.0308759562
    4    5         0.0976581687
    5    5        -6.5474939807
    6    5         2.6708770185
    7    5        -0.3994968608
    8    5         0.6999613637
    1    6        -0.0872841081
    4    6         0.3113461480
    5    6         2.6708770185
    6    6        -5.8801778918
    7    6        -0.0427745556
    8    6        -0.2694971322
    1    7        -0.7024748072
    4    7         2.0093533214
    5    7        -0.3994968608
    6    7        -0.0427745556
    7    7        -5.5647928360
    8    7         0.3284956285
    1    8         0.3007153410
    4    8        -0.7299462559
    5    8         0.6999613637
    6    8        -0.2694971322
    7    8         0.3284956285
    8    8        -4.9746182906
 end_one_electron_integrals
 begin_two_electron_integrals
    1    1    1    1        5.3685525578
    2    1    2    1        0.0399899263
    3    1    3    1        0.0399899315
    4    1    1    1       -0.5210540871
    4    1    4    1        0.0836582389
    4    1    2    2       -0.0144054820
    4    1    3    3       -0.0144054835
    5    1    1    1        0.0170844823
    5    1    4    1       -0.0039183745
    5    1    5    1        0.0225455808
    5    1    2    2        0.0007922001
    5    1    3    3        0.0007922001
    5    1    4    4       -0.0015013943
    6    1    1    1        0.0646091214
    6    1    4    1       -0.0089391549
    6    1    5    1       -0.0246735615
    6    1    6    1        0.0291192916
    6    1    2    2        0.0017795273
    6    1    3    3        0.0017795262
    6    1    4    4        0.0055348306
    6    1    5    4       -0.0261587539
    6    1    5    5       -0.0006929374
    7    1    1    1        0.5543414138
    7    1    4    1       -0.0916956141
    7    1    5    1        0.0094592746
    7    1    6    1        0.0039741321
    7    1    7    1        0.1024675599
    7    1    2    2        0.0152554223
    7    1    3    3        0.0152553891
    7    1    4    4        0.0218814887
    7    1    5    4        0.0048801931
    7    1    6    4       -0.0080509204
    7    1    5    5        0.0064244557
    7    1    6    5       -0.0067580222
    7    1    6    6        0.0095603086
    8    1    1    1       -0.2347686652
    8    1    4    1        0.0400325050
    8    1    5    1       -0.0136449536
    8    1    6    1        0.0088898708
    8    1    7    1       -0.0461727251
    8    1    8    1        0.0276121053
    8    1    2    2       -0.0018123940
    8    1    3    3       -0.0018120779
    8    1    4    4       -0.0082817469
    8    1    5    4       -0.0107752016
    8    1    6    4        0.0111537659
    8    1    7    4        0.0111557436
    8    1    5    5       -0.0082731282
    8    1    6    5        0.0073496339
    8    1    7    5        0.0076924077
    8    1    6    6       -0.0112123696
    8    1    7    6       -0.0100540629
    8    1    7    7       -0.0113151698
    2    2    1    1        1.2367434939
    2    2    2    2        0.9020305723
    3    2    3    2        0.0444285421
    4    2    2    1        0.0407391607
    4    2    3    1        0.0000000011
    4    2    4    2        0.1756392144
    5    2    2    1       -0.0008050821
    5    2    3    1       -0.0000000002
    5    2    4    2       -0.0022659373
    5    2    5    2        0.0283547078
    5    2    4    3       -0.0000000009
    6    2    2    1       -0.0043751876
    6    2    4    2       -0.0141850522
    6    2    5    2       -0.0224009512
    6    2    6    2        0.0223187934
    6    2    4    3        0.0000000005
    7    2    2    1       -0.0162765511
    7    2    3    1        0.0000000014
    7    2    4    2       -0.0025531841
    7    2    5    2        0.0027578062
    7    2    6    2        0.0014977902
    7    2    7    2        0.0455509948
    7    2    4    3        0.0000000100
    7    2    5    3        0.0000000002
    7    2    6    3       -0.0000000003
    8    2    2    1        0.0236524310
    8    2    3    1        0.0000000002
    8    2    4    2        0.0783295174
    8    2    5    2       -0.0035153862
    8    2    6    2       -0.0058184190
    8    2    7    2       -0.0063599789
    8    2    8    2        0.0567135259
    8    2    4    3       -0.0000000023
    8    2    5    3        0.0000000008
    8    2    6    3       -0.0000000006
    8    2    7    3       -0.0000000044
    3    3    1    1        1.2367435659
    3    3    2    2        0.8131735220
    3    3    3    3        0.9020306403
    4    3    2    1       -0.0000000011
    4    3    3    1        0.0407391656
    4    3    4    3        0.1756392262
    5    3    2    1        0.0000000002
    5    3    3    1       -0.0008050823
    5    3    4    2        0.0000000009
    5    3    4    3       -0.0022659376
    5    3    5    3        0.0283547071
    6    3    3    1       -0.0043751941
    6    3    4    2       -0.0000000005
    6    3    4    3       -0.0141850830
    6    3    5    3       -0.0224009507
    6    3    6    3        0.0223187978
    7    3    2    1       -0.0000000014
    7    3    3    1       -0.0162766884
    7    3    4    2       -0.0000000100
    7    3    5    2       -0.0000000002
    7    3    6    2        0.0000000003
    7    3    4    3       -0.0025537642
    7    3    5    3        0.0027578239
    7    3    6    3        0.0014978279
    7    3    7    3        0.0455509772
    8    3    2    1       -0.0000000002
    8    3    3    1        0.0236536890
    8    3    4    2        0.0000000023
    8    3    5    2       -0.0000000008
    8    3    6    2        0.0000000006
    8    3    7    2        0.0000000044
    8    3    4    3        0.0783349943
    8    3    5    3       -0.0035154329
    8    3    6    3       -0.0058189048
    8    3    7    3       -0.0063600962
    8    3    8    3        0.0567187831
    4    4    1    1        1.2830562999
    4    4    4    1       -0.0212200849
    4    4    2    2        0.8698498501
    4    4    3    3        0.8698498836
    4    4    4    4        0.9044391391
    5    4    1    1       -0.0411622706
    5    4    4    1       -0.0001313317
    5    4    5    1        0.0237292359
    5    4    2    2       -0.0179711007
    5    4    3    3       -0.0179711018
    5    4    4    4       -0.0305038187
    5    4    5    4        0.1131310083
    6    4    1    1       -0.0624156077
    6    4    4    1        0.0033050404
    6    4    5    1       -0.0222719109
    6    4    6    1        0.0239852819
    6    4    2    2       -0.0325899421
    6    4    3    3       -0.0325899574
    6    4    4    4       -0.0222465485
    6    4    5    4       -0.0891942060
    6    4    6    4        0.0802142136
    6    4    5    5       -0.0247338589
    7    4    1    1       -0.5232764526
    7    4    4    1        0.0240062378
    7    4    5    1        0.0027189191
    7    4    6    1       -0.0071007108
    7    4    7    1       -0.0232202371
    7    4    2    2       -0.1666367629
    7    4    3    3       -0.1666370353
    7    4    4    4       -0.1887389819
    7    4    5    4        0.0151345575
    7    4    6    4        0.0039057371
    7    4    7    4        0.1220022598
    7    4    5    5       -0.1264594452
    7    4    6    5        0.1097907578
    7    4    6    6       -0.1228025234
    8    4    1    1        0.2044943155
    8    4    4    1       -0.0104985978
    8    4    5    1       -0.0036928402
    8    4    6    1        0.0056434100
    8    4    7    1        0.0124240335
    8    4    8    1        0.0030952154
    8    4    2    2        0.0938210510
    8    4    3    3        0.0938235114
    8    4    4    4        0.0665530431
    8    4    5    4       -0.0061769964
    8    4    6    4       -0.0057334164
    8    4    7    4       -0.0162824663
    8    4    8    4        0.0848713525
    8    4    5    5       -0.0035184278
    8    4    6    5       -0.0071498449
    8    4    7    5        0.0141128914
    8    4    6    6        0.0044224446
    8    4    7    6       -0.0093533834
    8    4    7    7        0.0406677005
    5    5    1    1        0.8743607877
    5    5    4    1       -0.0082221167
    5    5    5    1        0.0021118695
    5    5    2    2        0.6245182990
    5    5    3    3        0.6245183154
    5    5    4    4        0.6613012917
    5    5    5    4        0.0171790089
    5    5    5    5        0.6116835780
    6    5    1    1       -0.5123887915
    6    5    4    1        0.0089291353
    6    5    5    1       -0.0001211901
    6    5    6    1       -0.0017739519
    6    5    2    2       -0.2660213230
    6    5    3    3       -0.2660213365
    6    5    4    4       -0.2932574275
    6    5    5    4        0.0326448805
    6    5    6    4        0.0093398863
    6    5    5    5       -0.1230199707
    6    5    6    5        0.2430192308
    7    5    1    1        0.0909225421
    7    5    4    1       -0.0020925393
    7    5    5    1       -0.0195037785
    7    5    6    1        0.0219072322
    7    5    7    1       -0.0023044467
    7    5    2    2        0.0345253466
    7    5    3    3        0.0345253673
    7    5    4    4        0.0416810877
    7    5    5    4       -0.0500147209
    7    5    6    4        0.0461572304
    7    5    7    4       -0.0262236024
    7    5    5    5        0.0239574700
    7    5    6    5       -0.0169704196
    7    5    7    5        0.0509017399
    7    5    6    6        0.0133712513
    8    5    1    1       -0.1543791532
    8    5    4    1        0.0055291853
    8    5    5    1       -0.0131816131
    8    5    6    1        0.0135698493
    8    5    7    1       -0.0073830059
    8    5    8    1        0.0091542826
    8    5    2    2       -0.0601616472
    8    5    3    3       -0.0601617085
    8    5    4    4       -0.0556674803
    8    5    5    4       -0.0813209610
    8    5    6    4        0.0669018086
    8    5    7    4        0.0294177660
    8    5    8    4       -0.0113294729
    8    5    5    5       -0.0674670268
    8    5    6    5        0.0147381347
    8    5    7    5        0.0245970911
    8    5    8    5        0.0964133106
    8    5    6    6       -0.0688128897
    8    5    7    6       -0.0400795356
    8    5    7    7       -0.0309910704
    6    6    1    1        0.8459524661
    6    6    4    1       -0.0107139304
    6    6    5    1        0.0062481151
    6    6    6    1       -0.0049151568
    6    6    2    2        0.5718259258
    6    6    3    3        0.5718259432
    6    6    4    4        0.6007240045
    6    6    5    4        0.0307915509
    6    6    6    4       -0.0331152102
    6    6    5    5        0.5949745137
    6    6    6    5       -0.0599873556
    6    6    6    6        0.6194943671
    7    6    1    1       -0.0078016961
    7    6    4    1       -0.0014286359
    7    6    5    1        0.0211836520
    7    6    6    1       -0.0231821033
    7    6    7    1        0.0062680162
    7    6    2    2        0.0031280952
    7    6    3    3        0.0031281082
    7    6    4    4       -0.0032297765
    7    6    5    4        0.0607474118
    7    6    6    4       -0.0551482407
    7    6    7    4        0.0117063880
    7    6    5    5        0.0042925121
    7    6    6    5       -0.0026183272
    7    6    7    5       -0.0459501098
    7    6    6    6        0.0060862965
    7    6    7    6        0.0506537990
    8    6    1    1        0.0891635444
    8    6    4    1       -0.0043000586
    8    6    5    1        0.0116988522
    8    6    6    1       -0.0121311417
    8    6    7    1        0.0055245748
    8    6    8    1       -0.0086111399
    8    6    2    2        0.0150419129
    8    6    3    3        0.0150416642
    8    6    4    4        0.0110620447
    8    6    5    4        0.0605850608
    8    6    6    4       -0.0515947868
    8    6    7    4       -0.0186618054
    8    6    8    4        0.0036514255
    8    6    5    5        0.0286465112
    8    6    6    5       -0.0027756944
    8    6    7    5       -0.0261484904
    8    6    8    5       -0.0670624985
    8    6    6    6        0.0405446194
    8    6    7    6        0.0323215818
    8    6    8    6        0.0546903005
    8    6    7    7        0.0022243279
    7    7    1    1        1.1305356220
    7    7    4    1       -0.0277624185
    7    7    5    1       -0.0073352781
    7    7    6    1        0.0129928163
    7    7    7    1        0.0258883054
    7    7    2    2        0.7203829436
    7    7    3    3        0.7203829425
    7    7    4    4        0.7485919436
    7    7    5    4       -0.0426163166
    7    7    6    4        0.0012421483
    7    7    7    4       -0.1420003756
    7    7    5    5        0.5697030399
    7    7    6    5       -0.2331579405
    7    7    7    5        0.0440434032
    7    7    6    6        0.5195340326
    7    7    7    6       -0.0153134586
    7    7    7    7        0.6698940268
    8    7    1    1       -0.0854850148
    8    7    4    1        0.0121392286
    8    7    5    1        0.0068793828
    8    7    6    1       -0.0094075192
    8    7    7    1       -0.0125433527
    8    7    8    1       -0.0016424418
    8    7    2    2        0.0105607119
    8    7    3    3        0.0105607527
    8    7    4    4        0.0201544880
    8    7    5    4        0.0273301676
    8    7    6    4       -0.0218762931
    8    7    7    4       -0.0008762976
    8    7    8    4       -0.0202208310
    8    7    5    5        0.0302129457
    8    7    6    5       -0.0144498133
    8    7    7    5       -0.0088662990
    8    7    8    5       -0.0231924610
    8    7    6    6        0.0289571528
    8    7    7    6        0.0131595865
    8    7    8    6        0.0171831613
    8    7    7    7        0.0145326149
    8    7    8    7        0.0350537976
    8    8    1    1        1.0686904679
    8    8    4    1       -0.0097119075
    8    8    5    1        0.0017836076
    8    8    6    1        0.0000138291
    8    8    7    1        0.0096772174
    8    8    8    1       -0.0060755966
    8    8    2    2        0.7747940995
    8    8    3    3        0.7747970888
    8    8    4    4        0.8216746931
    8    8    5    4       -0.0290798888
    8    8    6    4       -0.0141571585
    8    8    7    4       -0.1582093391
    8    8    8    4        0.0052404825
    8    8    5    5        0.6376286194
    8    8    6    5       -0.2667021964
    8    8    7    5        0.0228675875
    8    8    8    5       -0.0354907857
    8    8    6    6        0.5710463022
    8    8    7    6        0.0074495970
    8    8    8    6       -0.0008165179
    8    8    7    7        0.6880934742
    8    8    8    7        0.0227391271
    8    8    8    8        0.8184060710
 end_two_electron_integrals
 enrep_tce =    3.0202355783751118     
  EHF(A)             =       -99.87753055
  EHF(total)         =       -99.87753055
  Shift (HFtot-HFA)  =         0.00000000
 Cpu & wall time / sec            0.4            0.4
 T1-number-of-tasks                   15

 t1 file size   =               15
 t1 file name   = ./HF.t1
 t1 file handle =       -998
 T2-number-of-boxes                  315

 t2 file size   =              315
 t2 file name   = ./HF.t2
 t2 file handle =       -996
CCSD iterations
 ---------------------------------------------------------
 Iter          Residuum       Correlation     Cpu    Wall 
 ---------------------------------------------------------
NEW TASK SCHEDULING
CCSD_T1_NTS --- OK
CCSD_T2_NTS --- OK
    1   0.9892151439668  -0.1582984923727     1.8     2.6
    2   3.6008062682275   0.1101898499934     1.8     2.6
    3  16.1974451865521  -0.7387050960936     1.8     2.6
    4  53.7665162453795   2.4247294408725     1.8     2.6
    5 381.3703270426037  -5.7467501126682     1.8     2.6
 MICROCYCLE DIIS UPDATE:                    5                    5
    6   0.1881220050438  -0.0929653401725     1.8     2.7
    7   0.8660584524054  -0.0904633731665     1.8     2.6
    8   4.2070508866693  -0.1603106568469     1.8     2.6
    9  19.6105141306549   0.2131631834651     1.8     2.6
   10 113.1086463310272  -1.3856995079377     1.8     2.6
 MICROCYCLE DIIS UPDATE:                   10                    5
   11   0.0514859357841  -0.1010257021754     1.8     2.6
   12   0.2421242699822  -0.1048496522967     1.8     2.6
   13   1.1761235726147  -0.0896051731916     1.7     2.6
   14   5.8142871764587  -0.1789089925203     1.9     2.6
   15  27.1347306641810   0.3160839589795     1.9     2.6
 MICROCYCLE DIIS UPDATE:                   15                    5
   16   0.0180071342203  -0.1031069440052     1.8     2.6
   17   0.0872547528268  -0.1047978050739     1.8     2.6
   18   0.4262486363198  -0.0973505748162     2.0     2.6
   19   2.0971521257580  -0.1342499076718     1.8     2.6
   20  10.1045152698359   0.0516416574962     1.9     2.6
 MICROCYCLE DIIS UPDATE:                   20                    5
   21   0.0033142175935  -0.1035645080599     1.7     2.6
   22   0.0158409956514  -0.1038690103615     1.8     2.6
   23   0.0775532147083  -0.1025042636189     1.8     2.6
   24   0.3808819808922  -0.1091929914242     1.7     2.6
   25   1.8654894222869  -0.0764096428914     1.9     2.6
 MICROCYCLE DIIS UPDATE:                   25                    5
   26   0.0004010537863  -0.1036670670956     1.8     2.6
   27   0.0017974238948  -0.1036667946171     1.7     2.6
   28   0.0087486431729  -0.1035571742481     1.8     2.6
   29   0.0429721689421  -0.1041687780628     1.8     2.6
   30   0.2116332895496  -0.1009349930704     1.7     2.6
 MICROCYCLE DIIS UPDATE:                   30                    5
   31   0.0000391415747  -0.1036490725193     1.7     2.6
   32   0.0000747299222  -0.1036460751212     1.7     2.6
   33   0.0002910101253  -0.1036538741037     1.7     2.6
   34   0.0012618319377  -0.1036272529897     1.8     2.6
   35   0.0056408927910  -0.1037194552808     1.8     2.6
 MICROCYCLE DIIS UPDATE:                   35                    5
   36   0.0000088545774  -0.1036474335416     1.9     2.6
   37   0.0000214177951  -0.1036478174055     1.8     2.6
   38   0.0000856490527  -0.1036473231389     1.8     2.6
   39   0.0003787796353  -0.1036525719413     1.7     2.6
   40   0.0017625182260  -0.1036206172253     1.8     2.6
 MICROCYCLE DIIS UPDATE:                   40                    5
   41   0.0000023224743  -0.1036479666511     1.7     2.6
   42   0.0000035695442  -0.1036477886527     1.7     2.6
   43   0.0000128891677  -0.1036482088320     1.8     2.6
   44   0.0000542220209  -0.1036468936349     1.7     2.6
   45   0.0002364546663  -0.1036513633180     1.6     2.6
 MICROCYCLE DIIS UPDATE:                   45                    5
   46   0.0000004711591  -0.1036478889942     1.8     2.6
   47   0.0000013952237  -0.1036479222537     1.7     2.6
   48   0.0000062452136  -0.1036478391652     1.9     2.6
   49   0.0000297505073  -0.1036483322922     1.9     2.6
   50   0.0001455874264  -0.1036456331698     1.8     2.6
 MICROCYCLE DIIS UPDATE:                   50                    5
   51   0.0000001207872  -0.1036479136322     1.9     2.6
   52   0.0000001593752  -0.1036479022424     1.9     2.6
   53   0.0000005197008  -0.1036479240771     1.8     2.6
   54   0.0000020941788  -0.1036478573083     1.8     2.6
   55   0.0000088669422  -0.1036480830204     1.8     2.6
 MICROCYCLE DIIS UPDATE:                   55                    5
   56   0.0000000173311  -0.1036479070746     1.9     2.6
 -----------------------------------------------------------------
 Iterations converged
 CCSD correlation energy / hartree =        -0.103647907074612
 CCSD total energy / hartree       =       -99.981178459621589

 Singles contributions

 Doubles contributions
     6a   (alpha)     6a   (beta ) ---     5a   (alpha)     5a   (beta )       -0.3247640804
     6a   (alpha)     7a   (beta ) ---     5a   (alpha)     4a   (beta )       -0.0275151766
     7a   (alpha)     6a   (beta ) ---     4a   (alpha)     5a   (beta )       -0.0275151766
     7a   (alpha)     7a   (beta ) ---     4a   (alpha)     4a   (beta )       -0.0210655272
 Ground state specification:
 exp(T)|Ref>~(1+T)|Ref>
 ------- a(p)+/a(q) strings ----------

 singles norm

 doubles norm

 Reference string
  0.95110000480877843      :(1a)+ (2a)+ (3a)+ (4a)+ (5a)+ (1b)+ (2b)+ (3b)+ (4b)+ (5b)+ |0>

 Singles strings

 Doubles strings
 -0.30888311843275229      :(6a)+ (6b)+ (5b)  (5a)  (1a)+ (2a)+ (3a)+ (4a)+ (5a)+ (1b)+ (2b)+ (3b)+ (4b)+ (5b)+ |0>
 -------------------------------------

 Parallel integral file used       3 records with       0 large values


 Task  times  cpu:      101.8s     wall:      148.9s


                                NWChem Input Module
                                -------------------


 Summary of allocated global arrays
-----------------------------------
  No active global arrays


MA_summarize_allocated_blocks: starting scan ...
MA_summarize_allocated_blocks: scan completed: 0 heap blocks, 0 stack blocks
MA usage statistics:

	allocation statistics:
					      heap	     stack
					      ----	     -----
	current number of blocks	         0	         0
	maximum number of blocks	        18	        42
	current total bytes		         0	         0
	maximum total bytes		   9520928	  26465432
	maximum total K-bytes		      9521	     26466
	maximum total M-bytes		        10	        27


                                     CITATION
                                     --------
                Please cite the following reference when publishing
                           results obtained with NWChem:

          E. Apra, E. J. Bylaska, W. A. de Jong, N. Govind, K. Kowalski,
       T. P. Straatsma, M. Valiev, H. J. J. van Dam, Y. Alexeev, J. Anchell,
       V. Anisimov, F. W. Aquino, R. Atta-Fynn, J. Autschbach, N. P. Bauman,
     J. C. Becca, D. E. Bernholdt, K. Bhaskaran-Nair, S. Bogatko, P. Borowski,
         J. Boschen, J. Brabec, A. Bruner, E. Cauet, Y. Chen, G. N. Chuev,
      C. J. Cramer, J. Daily, M. J. O. Deegan, T. H. Dunning Jr., M. Dupuis,
   K. G. Dyall, G. I. Fann, S. A. Fischer, A. Fonari, H. Fruchtl, L. Gagliardi,
      J. Garza, N. Gawande, S. Ghosh, K. Glaesemann, A. W. Gotz, J. Hammond,
       V. Helms, E. D. Hermes, K. Hirao, S. Hirata, M. Jacquelin, L. Jensen,
   B. G. Johnson, H. Jonsson, R. A. Kendall, M. Klemm, R. Kobayashi, V. Konkov,
      S. Krishnamoorthy, M. Krishnan, Z. Lin, R. D. Lins, R. J. Littlefield,
      A. J. Logsdail, K. Lopata, W. Ma, A. V. Marenich, J. Martin del Campo,
   D. Mejia-Rodriguez, J. E. Moore, J. M. Mullin, T. Nakajima, D. R. Nascimento,
    J. A. Nichols, P. J. Nichols, J. Nieplocha, A. Otero-de-la-Roza, B. Palmer,
    A. Panyala, T. Pirojsirikul, B. Peng, R. Peverati, J. Pittner, L. Pollack,
   R. M. Richard, P. Sadayappan, G. C. Schatz, W. A. Shelton, D. W. Silverstein,
   D. M. A. Smith, T. A. Soares, D. Song, M. Swart, H. L. Taylor, G. S. Thomas,
            V. Tipparaju, D. G. Truhlar, K. Tsemekhman, T. Van Voorhis,
      A. Vazquez-Mayagoitia, P. Verma, O. Villa, A. Vishnu, K. D. Vogiatzis,
        D. Wang, J. H. Weare, M. J. Williamson, T. L. Windus, K. Wolinski,
        A. T. Wong, Q. Wu, C. Yang, Q. Yu, M. Zacharias, Z. Zhang, Y. Zhao,
                                and R. J. Harrison
                        "NWChem: Past, present, and future
                         J. Chem. Phys. 152, 184102 (2020)
                               doi:10.1063/5.0004997

                                      AUTHORS
                                      -------
  E. Apra, E. J. Bylaska, N. Govind, K. Kowalski, M. Valiev, D. Mejia-Rodriguez,
       A. Kunitsa, N. P. Bauman, A. Panyala, W. A. de Jong, T. P. Straatsma,
        H. J. J. van Dam, D. Wang, T. L. Windus, J. Hammond, J. Autschbach,
    K. Bhaskaran-Nair, J. Brabec, K. Lopata, S. A. Fischer, S. Krishnamoorthy,
     M. Jacquelin, W. Ma, M. Klemm, O. Villa, Y. Chen, V. Anisimov, F. Aquino,
    S. Hirata, M. T. Hackler, Eric Hermes, L. Jensen, J. E. Moore, J. C. Becca,
      V. Konjkov, T. Risthaus, M. Malagoli, A. Marenich, A. Otero-de-la-Roza,
        J. Mullin, P. Nichols, R. Peverati, J. Pittner, Y. Zhao, P.-D. Fan,
        A. Fonari, M. J. Williamson, R. J. Harrison, J. R. Rehr, M. Dupuis,
     D. Silverstein, D. M. A. Smith, J. Nieplocha, V. Tipparaju, M. Krishnan,
     B. E. Van Kuiken, A. Vazquez-Mayagoitia, M. Swart, Q. Wu, T. Van Voorhis,
     A. A. Auer, M. Nooijen, L. D. Crosby, E. Brown, G. Cisneros, G. I. Fann,
   H. Fruchtl, J. Garza, K. Hirao, R. A. Kendall, J. A. Nichols, K. Tsemekhman,
    K. Wolinski, J. Anchell, D. E. Bernholdt, P. Borowski, T. Clark, D. Clerc,
   H. Dachsel, M. J. O. Deegan, K. Dyall, D. Elwood, E. Glendening, M. Gutowski,
   A. C. Hess, J. Jaffe, B. G. Johnson, J. Ju, R. Kobayashi, R. Kutteh, Z. Lin,
   R. Littlefield, X. Long, B. Meng, T. Nakajima, S. Niu, L. Pollack, M. Rosing,
   K. Glaesemann, G. Sandrone, M. Stave, H. Taylor, G. Thomas, J. H. van Lenthe,
                               A. T. Wong, Z. Zhang.

 Total times  cpu:      105.2s     wall:      155.6s
