 argument  1 = input.nw
  NWChem w/ OpenMP: maximum threads =    1



============================== echo of input deck ==============================
 echo
 start HF
 title "HF"

 memory total 24 gb

 geometry units bohr
 symmetry c1
        F  0.00000000  0.00000000  0.00000000
        H  0.00000000  3.135825  0.00000000
 end

 basis spherical
   * library cc-pVTZ
 end

 mcscf
   active  8
   actelec 10
   multiplicity 1
   maxiter 40
   vectors input HF.mos
   vectors output HF.mos
 end

 task mcscf

 scf
   vectors input HF.mos
   vectors output HF-trash.mos
   noscf
 end

 tce
   2eorb
   2emet 13
   ccsd
   maxiter 500
 end

 set tce:print_integrals T
 set tce:qorb 8
 set tce:qela 5
 set tce:qelb 5

# set tce:qducc T
# set tce:nactv 3
# set tce:nonhf T
# set tce:ducc_model 3

 set tce:printtol 0.02

 task tce
================================================================================


                                         
                                         


             Northwest Computational Chemistry Package (NWChem) 7.0.1
             --------------------------------------------------------


                    Environmental Molecular Sciences Laboratory
                       Pacific Northwest National Laboratory
                                Richland, WA 99352

                              Copyright (c) 1994-2020
                       Pacific Northwest National Laboratory
                            Battelle Memorial Institute

             NWChem is an open-source computational chemistry package
                        distributed under the terms of the
                      Educational Community License (ECL) 2.0
             A copy of the license is included with this distribution
                              in the LICENSE.TXT file

                                  ACKNOWLEDGMENT
                                  --------------

            This software and its documentation were developed at the
            EMSL at Pacific Northwest National Laboratory, a multiprogram
            national laboratory, operated for the U.S. Department of Energy
            by Battelle under Contract Number DE-AC05-76RL01830. Support
            for this work was provided by the Department of Energy Office
            of Biological and Environmental Research, Office of Basic
            Energy Sciences, and the Office of Advanced Scientific Computing.


           Job information
           ---------------

    hostname        = WE46210
    program         = /home/baum612/code/nwchem/bin/LINUX64/nwchem
    date            = Mon May 20 13:17:45 2024

    compiled        = Tue_Apr_30_12:43:26_2024
    source          = /home/baum612/code/nwchem
    nwchem branch   = 7.0.0
    nwchem revision = nwchem_on_git-4191-g39d87d64de
    ga revision     = 5.8.1
    use scalapack   = F
    input           = input.nw
    prefix          = HF.
    data base       = ./HF.db
    status          = startup
    nproc           =        1
    time left       =     -1s



           Memory information
           ------------------

    heap     =  805306362 doubles =   6144.0 Mbytes
    stack    =  805306367 doubles =   6144.0 Mbytes
    global   = 1610612736 doubles =  12288.0 Mbytes (distinct from heap & stack)
    total    = 3221225465 doubles =  24576.0 Mbytes
    verify   = yes
    hardfail = no 


           Directory information
           ---------------------

  0 permanent = .
  0 scratch   = .




                                NWChem Input Module
                                -------------------


                                        HF
                                        --
 Turning off AUTOSYM since
 SYMMETRY directive was detected!


          ------
          auto-z
          ------
     1 autoz failed with cvr_scaling = 1.2 changing to 1.3
     2 autoz failed with cvr_scaling = 1.3 changing to 1.4
     3 autoz failed with cvr_scaling = 1.4 changing to 1.5
     4 autoz failed with cvr_scaling = 1.5 changing to 1.6
     5 autoz failed with cvr_scaling = 1.6 changing to 1.7

 AUTOZ failed to generate good internal coordinates.
 Cartesian coordinates will be used in optimizations.



                             Geometry "geometry" -> ""
                             -------------------------

 Output coordinates in a.u. (scale by  1.000000000 to convert to a.u.)

  No.       Tag          Charge          X              Y              Z
 ---- ---------------- ---------- -------------- -------------- --------------
    1 F                    9.0000     0.00000000    -0.31358250     0.00000000
    2 H                    1.0000     0.00000000     2.82224250     0.00000000

      Atomic Mass 
      ----------- 

      F                 18.998400
      H                  1.007825


 Effective nuclear repulsion energy (a.u.)       2.8700581187

            Nuclear Dipole moment (a.u.) 
            ----------------------------
        X                 Y               Z
 ---------------- ---------------- ----------------
     0.0000000000    -0.0000000000     0.0000000000


            XYZ format geometry
            -------------------
     2
 geometry
 F                     0.00000000    -0.16594072     0.00000000
 H                     0.00000000     1.49346652     0.00000000



 Summary of "ao basis" -> "" (spherical)
 ------------------------------------------------------------------------------
       Tag                 Description            Shells   Functions and Types
 ---------------- ------------------------------  ------  ---------------------
 *                          cc-pVTZ                   on all atoms 


                      Basis "ao basis" -> "ao basis" (spherical)
                      -----
  F (Fluorine)
  ------------
            Exponent  Coefficients 
       -------------- ---------------------------------------------------------
  1 S  1.95000000E+04  0.000507
  1 S  2.92300000E+03  0.003923
  1 S  6.64500000E+02  0.020200
  1 S  1.87500000E+02  0.079010
  1 S  6.06200000E+01  0.230439
  1 S  2.14200000E+01  0.432872
  1 S  7.95000000E+00  0.349964
  1 S  8.81500000E-01 -0.007892

  2 S  1.95000000E+04 -0.000117
  2 S  2.92300000E+03 -0.000912
  2 S  6.64500000E+02 -0.004717
  2 S  1.87500000E+02 -0.019086
  2 S  6.06200000E+01 -0.059655
  2 S  2.14200000E+01 -0.140010
  2 S  7.95000000E+00 -0.176782
  2 S  8.81500000E-01  0.605043

  3 S  2.25700000E+00  1.000000

  4 S  3.04100000E-01  1.000000

  5 P  4.38800000E+01  0.016665
  5 P  9.92600000E+00  0.104472
  5 P  2.93000000E+00  0.317260

  6 P  9.13200000E-01  1.000000

  7 P  2.67200000E-01  1.000000

  8 D  3.10700000E+00  1.000000

  9 D  8.55000000E-01  1.000000

 10 F  1.91700000E+00  1.000000

  H (Hydrogen)
  ------------
            Exponent  Coefficients 
       -------------- ---------------------------------------------------------
  1 S  3.38700000E+01  0.006068
  1 S  5.09500000E+00  0.045308
  1 S  1.15900000E+00  0.202822

  2 S  3.25800000E-01  1.000000

  3 S  1.02700000E-01  1.000000

  4 P  1.40700000E+00  1.000000

  5 P  3.88000000E-01  1.000000

  6 D  1.05700000E+00  1.000000



 Summary of "ao basis" -> "ao basis" (spherical)
 ------------------------------------------------------------------------------
       Tag                 Description            Shells   Functions and Types
 ---------------- ------------------------------  ------  ---------------------
 F                          cc-pVTZ                 10       30   4s3p2d1f
 H                          cc-pVTZ                  6       14   3s2p1d



                            NWChem Direct MCSCF Module
                            --------------------------


                                        HF


     -----------------------------------
       Basis functions:             44
       Inactive shells:              0
       Active shells:                8
       Active electrons:            10
       Symmetry:                    a       
       Multiplicity:                 1
       Orbital rotations:          288
     -----------------------------------

     -----------------------------------
       E2 extrapolation:             F
       Conjugacy:                    T
       Micro CI relax:               T
       Canonical orbitals:           T
       Maximum iterations:          40
       Converge threshold:    1.00E-04
       Conjugacy resets:            20
       Initial levelshift:        0.10
     -----------------------------------

 Loading old vectors from job with title :

HF


   input molecular orbitals = ./HF.mos
  output molecular orbtials = ./HF.mos

       No. of determinants:          3136


  Starting Orbital Energies
   -26.332025    -1.537994    -0.655747    -0.655746    -0.568425    -0.109752
    -0.005829    -0.003309     0.378380     0.728525     0.728525     0.924616
     1.004420     1.004420     1.548574     2.252894     2.252894     2.267572
     2.267572     2.594877     3.403804     3.403804     3.498937     3.498937
     3.594967     3.870125     3.870125     4.137034     5.071679     5.071679
     5.180447     7.373114     7.373114     7.377132     7.377132     7.402449
     7.402449     7.423190     8.520759     8.845142     8.845142     8.868555
     8.868555     9.764703

  Orbital Symmetry Irreps
a    a    a    a    a    a    a    a    a    a    a    a    a    a    a   
a    a    a    a    a    a    a    a    a    a    a    a    a    a    a   
a    a    a    a    a    a    a    a    a    a    a    a    a    a   

 Integral file          = ./HF.aoints.0
 Record size in doubles =  65536        No. of integs per rec  =  43688
 Max. records in memory =     18        Max. records in file   = 250292
 No. of bits per label  =      8        No. of bits per value  =     64


 #quartets = 9.316D+03 #integrals = 1.251D+05 #direct =  0.0% #cached =100.0%




          %%%%% MacroIteration   1 %%%%%


          Number of sigma calls:       30
                       o<<<<< (aa):             0.01
                       o<<<<< (bb):             0.01
                       o<<<<< (ab):             0.10
                       o<<<<< (total)           0.11
                       o<<<<< (aa) ff           0.00
                       o<<<<< (aa) gop          0.00
                       o<<<<< (aa) dot          0.00
                       o<<<<< (ab) str          0.00
                       o<<<<< (ab) gath         0.00
                       o<<<<< (ab) dotab        0.00
                       o<<<<< (ab) scat         0.00
                       o<<<<< (ab) sync         0.00
                       o<<<<< Density           0.01
                       o<<<<< Density one       0.00
                       o<<<<< Density two       0.00
                       o<<<<< Density ab        0.01
                       o<<<<< Spin adapt        0.35
                       o<<<<< Symm adapt        0.00

                       o<<<<< (ab) max sync:      0.00

           >>>| Valence CI:           -102.839085535656
           >>>| MCSCF energy:          -99.969027416979
           >>>| Gradient norm:          0.290062264D-02
     --- Warning:   59 Hessian diagonals < 0.05 ---

                              ----- Line search ------

        step       energy         lsg     num-lsg   num-lsh   lsrat    time
      ------- ---------------- --------- --------- --------- ------- --------
       0.0000     -99.96902742 -1.24D-06  0.00D+00  0.00D+00 0.0D+00      0.8

          Number of sigma calls:       23
                       o<<<<< (aa):             0.00
                       o<<<<< (bb):             0.01
                       o<<<<< (ab):             0.07
                       o<<<<< (total)           0.08
                       o<<<<< (aa) ff           0.00
                       o<<<<< (aa) gop          0.00
                       o<<<<< (aa) dot          0.00
                       o<<<<< (ab) str          0.00
                       o<<<<< (ab) gath         0.00
                       o<<<<< (ab) dotab        0.00
                       o<<<<< (ab) scat         0.00
                       o<<<<< (ab) sync         0.00
                       o<<<<< Density           0.01
                       o<<<<< Density one       0.00
                       o<<<<< Density two       0.00
                       o<<<<< Density ab        0.01
                       o<<<<< Spin adapt        0.31
                       o<<<<< Symm adapt        0.00

                       o<<<<< (ab) max sync:      0.00
       1.0000     -99.96902815 -2.28D-07 -2.28D-07  1.01D-06 1.8D-01      1.3

          Number of sigma calls:       18
                       o<<<<< (aa):             0.00
                       o<<<<< (bb):             0.00
                       o<<<<< (ab):             0.02
                       o<<<<< (total)           0.02
                       o<<<<< (aa) ff           0.00
                       o<<<<< (aa) gop          0.00
                       o<<<<< (aa) dot          0.00
                       o<<<<< (ab) str          0.00
                       o<<<<< (ab) gath         0.00
                       o<<<<< (ab) dotab        0.00
                       o<<<<< (ab) scat         0.00
                       o<<<<< (ab) sync         0.00
                       o<<<<< Density           0.00
                       o<<<<< Density one       0.00
                       o<<<<< Density two       0.00
                       o<<<<< Density ab        0.00
                       o<<<<< Spin adapt        0.19
                       o<<<<< Symm adapt        0.00

                       o<<<<< (ab) max sync:      0.00
       1.2267     -99.96902817  1.49D-10  1.43D-10  1.01D-06 1.2D-04      1.5
     --- Orbitals canonicalized ---



          %%%%% MacroIteration   2 %%%%%


          Number of sigma calls:       20
                       o<<<<< (aa):             0.00
                       o<<<<< (bb):             0.00
                       o<<<<< (ab):             0.05
                       o<<<<< (total)           0.06
                       o<<<<< (aa) ff           0.00
                       o<<<<< (aa) gop          0.00
                       o<<<<< (aa) dot          0.00
                       o<<<<< (ab) str          0.00
                       o<<<<< (ab) gath         0.00
                       o<<<<< (ab) dotab        0.00
                       o<<<<< (ab) scat         0.00
                       o<<<<< (ab) sync         0.00
                       o<<<<< Density           0.01
                       o<<<<< Density one       0.00
                       o<<<<< Density two       0.00
                       o<<<<< Density ab        0.01
                       o<<<<< Spin adapt        0.17
                       o<<<<< Symm adapt        0.00

                       o<<<<< (ab) max sync:      0.00

           >>>| Valence CI:           -102.839086293659
           >>>| MCSCF energy:          -99.969028174982
           >>>| Gradient norm:          0.660556299D-03
     --- Warning:   59 Hessian diagonals < 0.05 ---
     --- Conjugacy reset ---

                              ----- Line search ------

        step       energy         lsg     num-lsg   num-lsh   lsrat    time
      ------- ---------------- --------- --------- --------- ------- --------
       0.0000     -99.96902817 -5.31D-08  0.00D+00  0.00D+00 0.0D+00      1.9

          Number of sigma calls:       15
                       o<<<<< (aa):             0.00
                       o<<<<< (bb):             0.00
                       o<<<<< (ab):             0.03
                       o<<<<< (total)           0.03
                       o<<<<< (aa) ff           0.00
                       o<<<<< (aa) gop          0.00
                       o<<<<< (aa) dot          0.00
                       o<<<<< (ab) str          0.00
                       o<<<<< (ab) gath         0.00
                       o<<<<< (ab) dotab        0.00
                       o<<<<< (ab) scat         0.00
                       o<<<<< (ab) sync         0.00
                       o<<<<< Density           0.01
                       o<<<<< Density one       0.00
                       o<<<<< Density two       0.00
                       o<<<<< Density ab        0.01
                       o<<<<< Spin adapt        0.16
                       o<<<<< Symm adapt        0.00

                       o<<<<< (ab) max sync:      0.00
       1.0000     -99.96902821 -1.24D-08 -1.24D-08  4.07D-08 2.3D-01      2.1

          Number of sigma calls:       14
                       o<<<<< (aa):             0.00
                       o<<<<< (bb):             0.00
                       o<<<<< (ab):             0.03
                       o<<<<< (total)           0.03
                       o<<<<< (aa) ff           0.00
                       o<<<<< (aa) gop          0.00
                       o<<<<< (aa) dot          0.00
                       o<<<<< (ab) str          0.00
                       o<<<<< (ab) gath         0.00
                       o<<<<< (ab) dotab        0.00
                       o<<<<< (ab) scat         0.00
                       o<<<<< (ab) sync         0.00
                       o<<<<< Density           0.00
                       o<<<<< Density one       0.00
                       o<<<<< Density two       0.00
                       o<<<<< Density ab        0.00
                       o<<<<< Spin adapt        0.16
                       o<<<<< Symm adapt        0.00

                       o<<<<< (ab) max sync:      0.00
       1.3050     -99.96902821 -7.42D-12 -6.80D-12  4.07D-08 1.4D-04      2.3



          %%%%% MacroIteration   3 %%%%%


          Number of sigma calls:        1
                       o<<<<< (aa):             0.00
                       o<<<<< (bb):             0.00
                       o<<<<< (ab):             0.00
                       o<<<<< (total)           0.01
                       o<<<<< (aa) ff           0.00
                       o<<<<< (aa) gop          0.00
                       o<<<<< (aa) dot          0.00
                       o<<<<< (ab) str          0.00
                       o<<<<< (ab) gath         0.00
                       o<<<<< (ab) dotab        0.00
                       o<<<<< (ab) scat         0.00
                       o<<<<< (ab) sync         0.00
                       o<<<<< Density           0.01
                       o<<<<< Density one       0.00
                       o<<<<< Density two       0.00
                       o<<<<< Density ab        0.01
                       o<<<<< Spin adapt        0.00
                       o<<<<< Symm adapt        0.00

                       o<<<<< (ab) max sync:      0.00

           >>>| Valence CI:           -102.839086328282
           >>>| MCSCF energy:          -99.969028209605
           >>>| Gradient norm:          0.164135370D-03
     --- Warning:   59 Hessian diagonals < 0.05 ---

                              ----- Line search ------

        step       energy         lsg     num-lsg   num-lsh   lsrat    time
      ------- ---------------- --------- --------- --------- ------- --------
       0.0000     -99.96902821 -5.67D-09  0.00D+00  0.00D+00 0.0D+00      2.4

          Number of sigma calls:       14
                       o<<<<< (aa):             0.00
                       o<<<<< (bb):             0.00
                       o<<<<< (ab):             0.03
                       o<<<<< (total)           0.04
                       o<<<<< (aa) ff           0.00
                       o<<<<< (aa) gop          0.00
                       o<<<<< (aa) dot          0.00
                       o<<<<< (ab) str          0.00
                       o<<<<< (ab) gath         0.00
                       o<<<<< (ab) dotab        0.00
                       o<<<<< (ab) scat         0.00
                       o<<<<< (ab) sync         0.00
                       o<<<<< Density           0.01
                       o<<<<< Density one       0.00
                       o<<<<< Density two       0.00
                       o<<<<< Density ab        0.01
                       o<<<<< Spin adapt        0.18
                       o<<<<< Symm adapt        0.00

                       o<<<<< (ab) max sync:      0.00
       1.0000     -99.96902821 -1.58D-09 -1.58D-09  4.09D-09 2.8D-01      2.7

          Number of sigma calls:       13
                       o<<<<< (aa):             0.00
                       o<<<<< (bb):             0.00
                       o<<<<< (ab):             0.03
                       o<<<<< (total)           0.03
                       o<<<<< (aa) ff           0.00
                       o<<<<< (aa) gop          0.00
                       o<<<<< (aa) dot          0.00
                       o<<<<< (ab) str          0.00
                       o<<<<< (ab) gath         0.00
                       o<<<<< (ab) dotab        0.00
                       o<<<<< (ab) scat         0.00
                       o<<<<< (ab) sync         0.00
                       o<<<<< Density           0.01
                       o<<<<< Density one       0.00
                       o<<<<< Density two       0.00
                       o<<<<< Density ab        0.01
                       o<<<<< Spin adapt        0.14
                       o<<<<< Symm adapt        0.00

                       o<<<<< (ab) max sync:      0.00
       1.3869     -99.96902821 -2.46D-13  1.13D-12  4.09D-09 4.3D-05      2.9



          %%%%% MacroIteration   4 %%%%%


          Number of sigma calls:        1
                       o<<<<< (aa):             0.00
                       o<<<<< (bb):             0.00
                       o<<<<< (ab):             0.00
                       o<<<<< (total)           0.00
                       o<<<<< (aa) ff           0.00
                       o<<<<< (aa) gop          0.00
                       o<<<<< (aa) dot          0.00
                       o<<<<< (ab) str          0.00
                       o<<<<< (ab) gath         0.00
                       o<<<<< (ab) dotab        0.00
                       o<<<<< (ab) scat         0.00
                       o<<<<< (ab) sync         0.00
                       o<<<<< Density           0.00
                       o<<<<< Density one       0.00
                       o<<<<< Density two       0.00
                       o<<<<< Density ab        0.00
                       o<<<<< Spin adapt        0.00
                       o<<<<< Symm adapt        0.00

                       o<<<<< (ab) max sync:      0.00

           >>>| Valence CI:           -102.839086332215
           >>>| MCSCF energy:          -99.969028213539
           >>>| Gradient norm:          0.641954335D-04




     ==============================
            MCSCF Converged
     ==============================



          Canonical Eigenvalues

              1      
    1  -26.3325
    2   -1.5382
    3   -0.6561
    4   -0.6561
    5   -0.5674
    6   -0.1106
    7   -0.0058
    8   -0.0033
    9    0.3785
   10    0.7285
   11    0.7285
   12    0.9230
   13    1.0040
   14    1.0040
   15    1.5461
   16    2.2528
   17    2.2528
   18    2.2673
   19    2.2673
   20    2.5944
   21    3.4040
   22    3.4040
   23    3.4971
   24    3.4971
   25    3.5938
   26    3.8699
   27    3.8699
   28    4.1358
   29    5.0714
   30    5.0714
   31    5.1739
   32    7.3727
   33    7.3727
   34    7.3760
   35    7.3760
   36    7.4021
   37    7.4021
   38    7.4212
   39    8.5152
   40    8.8447
   41    8.8447
   42    8.8669
   43    8.8669
   44    9.7581


          Converged CI vector

   Index           Coefficient          Config. Occupation
         1         -0.91468933          1  2  3  4  5  1  2  3  4  5
         2         -0.16313912          1  2  3  4  5  1  2  3  4  6
        57         -0.16313912          1  2  3  4  6  1  2  3  4  5
        58          0.32265615          1  2  3  4  6  1  2  3  4  6
        66         -0.02181144          1  2  3  4  6  1  3  4  5  7
      1181         -0.02239061          1  2  3  4  8  1  3  4  5  6
       246         -0.02239061          1  3  4  5  6  1  2  3  4  8
       506         -0.02181144          1  3  4  5  7  1  2  3  4  6

          Number of sigma calls:        1
                       o<<<<< (aa):             0.00
                       o<<<<< (bb):             0.00
                       o<<<<< (ab):             0.00
                       o<<<<< (total)           0.00
                       o<<<<< (aa) ff           0.00
                       o<<<<< (aa) gop          0.00
                       o<<<<< (aa) dot          0.00
                       o<<<<< (ab) str          0.00
                       o<<<<< (ab) gath         0.00
                       o<<<<< (ab) dotab        0.00
                       o<<<<< (ab) scat         0.00
                       o<<<<< (ab) sync         0.00
                       o<<<<< Density           0.00
                       o<<<<< Density one       0.00
                       o<<<<< Density two       0.00
                       o<<<<< Density ab        0.00
                       o<<<<< Spin adapt        0.00
                       o<<<<< Symm adapt        0.00

                       o<<<<< (ab) max sync:      0.00



          Natural orbital occupation numbers

              1      
    1    2.0000
    2    1.9993
    3    1.9993
    4    1.9949
    5    1.7583
    6    0.2421
    7    0.0039
    8    0.0023


          Number of sigma calls:       30
                       o<<<<< (aa):             0.00
                       o<<<<< (bb):             0.01
                       o<<<<< (ab):             0.08
                       o<<<<< (total)           0.09
                       o<<<<< (aa) ff           0.00
                       o<<<<< (aa) gop          0.00
                       o<<<<< (aa) dot          0.00
                       o<<<<< (ab) str          0.00
                       o<<<<< (ab) gath         0.00
                       o<<<<< (ab) dotab        0.00
                       o<<<<< (ab) scat         0.00
                       o<<<<< (ab) sync         0.00
                       o<<<<< Density           0.00
                       o<<<<< Density one       0.00
                       o<<<<< Density two       0.00
                       o<<<<< Density ab        0.00
                       o<<<<< Spin adapt        0.34
                       o<<<<< Symm adapt        0.00

                       o<<<<< (ab) max sync:      0.00


       Final MCSCF results 
       ------------------- 

       Total MCSCF energy =    -99.969028213539
            Gradient norm =      6.4D-05

    CPU time for solution =      3.3s
   Wall time for solution =      6.6s



                        Analysis of MCSCF natural orbitals
                        ----------------------------------

 Vector    1  Occ=1.999983D+00  E=-2.633246D+01  Symmetry=a
              MO Center=  7.6D-14, -1.7D-01,  2.4D-14, r^2= 1.2D-02
   Bfn.  Coefficient  Atom+Function         Bfn.  Coefficient  Atom+Function  
  ----- ------------  ---------------      ----- ------------  ---------------
     1      0.976033  1 F  s          

 Vector    2  Occ=1.999287D+00  E=-1.538236D+00  Symmetry=a
              MO Center= -4.4D-15, -1.6D-01, -1.3D-12, r^2= 4.5D-01
   Bfn.  Coefficient  Atom+Function         Bfn.  Coefficient  Atom+Function  
  ----- ------------  ---------------      ----- ------------  ---------------
    10      0.476122  1 F  pz                 7      0.392099  1 F  pz         
    13      0.353082  1 F  pz         

 Vector    3  Occ=1.999287D+00  E=-6.561252D-01  Symmetry=a
              MO Center=  7.8D-14, -1.6D-01, -1.0D-14, r^2= 4.5D-01
   Bfn.  Coefficient  Atom+Function         Bfn.  Coefficient  Atom+Function  
  ----- ------------  ---------------      ----- ------------  ---------------
     8      0.476122  1 F  px                 5      0.392100  1 F  px         
    11      0.353081  1 F  px         

 Vector    4  Occ=1.994855D+00  E=-6.561242D-01  Symmetry=a
              MO Center= -1.8D-13, -1.8D-01,  1.3D-12, r^2= 3.5D-01
   Bfn.  Coefficient  Atom+Function         Bfn.  Coefficient  Atom+Function  
  ----- ------------  ---------------      ----- ------------  ---------------
     2      0.575447  1 F  s                  4      0.380063  1 F  s          
     3      0.170880  1 F  s          

 Vector    5  Occ=1.758303D+00  E=-5.673891D-01  Symmetry=a
              MO Center= -8.7D-15,  4.7D-01, -1.6D-14, r^2= 1.1D+00
   Bfn.  Coefficient  Atom+Function         Bfn.  Coefficient  Atom+Function  
  ----- ------------  ---------------      ----- ------------  ---------------
     9      0.355935  1 F  py                32      0.301310  2 H  s          
     6      0.288231  1 F  py                12      0.250014  1 F  py         
    33      0.179588  2 H  s          

 Vector    6  Occ=2.420500D-01  E=-1.106120D-01  Symmetry=a
              MO Center= -3.4D-15,  8.2D-01, -7.5D-15, r^2= 1.2D+00
   Bfn.  Coefficient  Atom+Function         Bfn.  Coefficient  Atom+Function  
  ----- ------------  ---------------      ----- ------------  ---------------
    32      0.474401  2 H  s                  9     -0.404464  1 F  py         
     6     -0.329797  1 F  py                33      0.233961  2 H  s          
    31      0.208840  2 H  s          

 Vector    7  Occ=3.922094D-03  E=-5.815853D-03  Symmetry=a
              MO Center= -4.7D-15, -2.2D-01, -2.5D-15, r^2= 7.5D-01
   Bfn.  Coefficient  Atom+Function         Bfn.  Coefficient  Atom+Function  
  ----- ------------  ---------------      ----- ------------  ---------------
     4      1.237557  1 F  s                  3     -0.696068  1 F  s          
     2     -0.658691  1 F  s                 23      0.289240  1 F  d  2       
    21      0.167004  1 F  d  0       

 Vector    8  Occ=2.313435D-03  E=-3.306955D-03  Symmetry=a
              MO Center=  1.0D-14, -3.1D-01,  5.0D-15, r^2= 5.2D-01
   Bfn.  Coefficient  Atom+Function         Bfn.  Coefficient  Atom+Function  
  ----- ------------  ---------------      ----- ------------  ---------------
    23      0.544989  1 F  d  2               3      0.447174  1 F  s          
     4     -0.439450  1 F  s                 21      0.314492  1 F  d  0       
    18      0.297455  1 F  d  2              12      0.237050  1 F  py         
     6     -0.229341  1 F  py                16      0.171624  1 F  d  0       
     1     -0.155698  1 F  s          

 Vector    9  Occ=0.000000D+00  E= 3.784581D-01  Symmetry=a
              MO Center=  1.3D-14,  1.7D+00,  1.1D-14, r^2= 3.1D+00
   Bfn.  Coefficient  Atom+Function         Bfn.  Coefficient  Atom+Function  
  ----- ------------  ---------------      ----- ------------  ---------------
    33      1.737404  2 H  s                 32     -1.205192  2 H  s          
     4     -0.532640  1 F  s                 12     -0.268785  1 F  py         
     2      0.166351  1 F  s          

 Vector   10  Occ=0.000000D+00  E= 7.284712D-01  Symmetry=a
              MO Center=  1.4D-14,  1.3D+00, -8.9D-18, r^2= 1.3D+00
   Bfn.  Coefficient  Atom+Function         Bfn.  Coefficient  Atom+Function  
  ----- ------------  ---------------      ----- ------------  ---------------
    37      0.939509  2 H  px                11      0.331832  1 F  px         
     8     -0.279347  1 F  px         

 Vector   11  Occ=0.000000D+00  E= 7.284713D-01  Symmetry=a
              MO Center=  9.8D-16,  1.3D+00,  1.0D-14, r^2= 1.3D+00
   Bfn.  Coefficient  Atom+Function         Bfn.  Coefficient  Atom+Function  
  ----- ------------  ---------------      ----- ------------  ---------------
    39      0.939509  2 H  pz                13      0.331831  1 F  pz         
    10     -0.279348  1 F  pz         

 Vector   12  Occ=0.000000D+00  E= 9.230111D-01  Symmetry=a
              MO Center=  6.2D-16,  1.1D+00, -3.5D-15, r^2= 1.7D+00
   Bfn.  Coefficient  Atom+Function         Bfn.  Coefficient  Atom+Function  
  ----- ------------  ---------------      ----- ------------  ---------------
    38      0.833532  2 H  py                12     -0.510799  1 F  py         
    32      0.477577  2 H  s                  9      0.423379  1 F  py         
    33     -0.329286  2 H  s                  4      0.269542  1 F  s          
     6      0.161972  1 F  py         

 Vector   13  Occ=0.000000D+00  E= 1.003971D+00  Symmetry=a
              MO Center= -4.4D-15,  2.3D-02,  6.7D-16, r^2= 1.8D+00
   Bfn.  Coefficient  Atom+Function         Bfn.  Coefficient  Atom+Function  
  ----- ------------  ---------------      ----- ------------  ---------------
    11      1.173385  1 F  px                 8     -0.681638  1 F  px         
    37     -0.522170  2 H  px                 5     -0.228181  1 F  px         

 Vector   14  Occ=0.000000D+00  E= 1.003971D+00  Symmetry=a
              MO Center=  6.9D-16,  2.3D-02,  2.9D-15, r^2= 1.8D+00
   Bfn.  Coefficient  Atom+Function         Bfn.  Coefficient  Atom+Function  
  ----- ------------  ---------------      ----- ------------  ---------------
    13      1.173385  1 F  pz                10     -0.681638  1 F  pz         
    39     -0.522170  2 H  pz                 7     -0.228181  1 F  pz         

 Vector   15  Occ=0.000000D+00  E= 1.546063D+00  Symmetry=a
              MO Center=  4.9D-15,  4.6D-01,  1.6D-15, r^2= 2.5D+00
   Bfn.  Coefficient  Atom+Function         Bfn.  Coefficient  Atom+Function  
  ----- ------------  ---------------      ----- ------------  ---------------
    12      1.588240  1 F  py                38      1.223474  2 H  py         
     4      1.180873  1 F  s                  9     -0.585524  1 F  py         
     2     -0.530768  1 F  s                 33     -0.503111  2 H  s          
    23     -0.309801  1 F  d  2              32     -0.273359  2 H  s          
    31     -0.230408  2 H  s                  1     -0.203075  1 F  s          

 Vector   16  Occ=0.000000D+00  E= 2.252778D+00  Symmetry=a
              MO Center=  1.6D-15, -3.6D-02,  2.1D-15, r^2= 7.9D-01
   Bfn.  Coefficient  Atom+Function         Bfn.  Coefficient  Atom+Function  
  ----- ------------  ---------------      ----- ------------  ---------------
    20      0.977751  1 F  d -1              41     -0.179968  2 H  d -1       

 Vector   17  Occ=0.000000D+00  E= 2.252778D+00  Symmetry=a
              MO Center=  7.8D-16, -3.6D-02,  1.5D-15, r^2= 7.9D-01
   Bfn.  Coefficient  Atom+Function         Bfn.  Coefficient  Atom+Function  
  ----- ------------  ---------------      ----- ------------  ---------------
    19      0.977751  1 F  d -2              40     -0.179968  2 H  d -2       

 Vector   18  Occ=0.000000D+00  E= 2.267320D+00  Symmetry=a
              MO Center=  6.1D-15, -1.6D-01,  1.1D-14, r^2= 5.8D-01
   Bfn.  Coefficient  Atom+Function         Bfn.  Coefficient  Atom+Function  
  ----- ------------  ---------------      ----- ------------  ---------------
    21      0.870080  1 F  d  0              23     -0.502129  1 F  d  2       


 Wrote Lagrangian and 1- and 2-particle density matrices to ./HF.mcpdm


     Multipole analysis of the density
     ---------------------------------

     L   x y z        total        nuclear
     -   - - -        -----        -------
     0   0 0 0     -0.000000     10.000000

     1   1 0 0      0.000000      0.000000
     1   0 1 0      0.607226     -0.000000
     1   0 0 1      0.000000      0.000000

     2   2 0 0     -4.490662      0.000000
     2   1 1 0      0.000000      0.000000
     2   1 0 1      0.000000      0.000000
     2   0 2 0     -1.958350      8.850059
     2   0 1 1      0.000000      0.000000
     2   0 0 2     -4.490664      0.000000


  Mulliken analysis of the total density
  --------------------------------------

    Atom       Charge   Shell Charges
 -----------   ------   -------------------------------------------------------
    1 F    9     9.18   1.95  1.09  0.28  0.67  1.50  2.31  1.38  0.00  0.00  0.00
    2 H    1     0.82   0.15  0.44  0.21  0.00  0.01  0.00

    Mulliken analysis of the active space density
    ---------------------------------------------

    Atom       Charge   Shell Charges
 -----------   ------   -------------------------------------------------------
    1 F    9     9.18   1.95  1.09  0.28  0.67  1.50  2.31  1.38  0.00  0.00  0.00
    2 H    1     0.82   0.15  0.44  0.21  0.00  0.01  0.00

 Parallel integral file used       3 records with       0 large values


 Task  times  cpu:        3.3s     wall:        6.6s


                                NWChem Input Module
                                -------------------


                                 NWChem SCF Module
                                 -----------------


                                        HF



  ao basis        = "ao basis"
  functions       =    44
  atoms           =     2
  closed shells   =     5
  open shells     =     0
  charge          =   0.00
  wavefunction    = RHF 
  input vectors   = ./HF.mos
  output vectors  = ./HF-trash.mos
  use symmetry    = F
  symmetry adapt  = F


 Summary of "ao basis" -> "ao basis" (spherical)
 ------------------------------------------------------------------------------
       Tag                 Description            Shells   Functions and Types
 ---------------- ------------------------------  ------  ---------------------
 F                          cc-pVTZ                 10       30   4s3p2d1f
 H                          cc-pVTZ                  6       14   3s2p1d



 Forming initial guess at       6.6s


 Loading old vectors from job with title :

HF


 Starting SCF solution at       6.6s



 ----------------------------------------------
         Quadratically convergent ROHF

 Convergence threshold     :          1.000E-04
 Maximum no. of iterations :           30
 Final Fock-matrix accuracy:          1.000E-07
 ----------------------------------------------


 Integral file          = ./HF.aoints.0
 Record size in doubles =  65536        No. of integs per rec  =  43688
 Max. records in memory =     18        Max. records in file   = 250301
 No. of bits per label  =      8        No. of bits per value  =     64


 #quartets = 9.316D+03 #integrals = 1.250D+05 #direct =  0.0% #cached =100.0%



       Final RHF  results 
       ------------------ 

         Total SCF energy =    -99.853995546204
      One-electron energy =   -146.109697755135
      Two-electron energy =     43.385644090254
 Nuclear repulsion energy =      2.870058118677

        Time for solution =      0.0s


             Final eigenvalues
             -----------------

              1      
    1  -26.3325
    2   -1.5382
    3   -0.6561
    4   -0.6561
    5   -0.5674
    6   -0.1106
    7   -0.0058
    8   -0.0033
    9    0.3785
   10    0.7285
   11    0.7285
   12    0.9230
   13    1.0040
   14    1.0040
   15    1.5461

                       ROHF Final Molecular Orbital Analysis
                       -------------------------------------

 Vector    2  Occ=2.000000D+00  E=-1.538236D+00
              MO Center= -4.4D-15, -1.6D-01, -1.3D-12, r^2= 4.5D-01
   Bfn.  Coefficient  Atom+Function         Bfn.  Coefficient  Atom+Function  
  ----- ------------  ---------------      ----- ------------  ---------------
    10      0.476122  1 F  pz                 7      0.392099  1 F  pz         
    13      0.353082  1 F  pz         

 Vector    3  Occ=2.000000D+00  E=-6.561252D-01
              MO Center=  7.8D-14, -1.6D-01, -1.0D-14, r^2= 4.5D-01
   Bfn.  Coefficient  Atom+Function         Bfn.  Coefficient  Atom+Function  
  ----- ------------  ---------------      ----- ------------  ---------------
     8      0.476122  1 F  px                 5      0.392100  1 F  px         
    11      0.353081  1 F  px         

 Vector    4  Occ=2.000000D+00  E=-6.561242D-01
              MO Center= -1.8D-13, -1.8D-01,  1.3D-12, r^2= 3.5D-01
   Bfn.  Coefficient  Atom+Function         Bfn.  Coefficient  Atom+Function  
  ----- ------------  ---------------      ----- ------------  ---------------
     2      0.575447  1 F  s                  4      0.380063  1 F  s          
     3      0.170880  1 F  s          

 Vector    5  Occ=2.000000D+00  E=-5.673891D-01
              MO Center= -8.7D-15,  4.7D-01, -1.6D-14, r^2= 1.1D+00
   Bfn.  Coefficient  Atom+Function         Bfn.  Coefficient  Atom+Function  
  ----- ------------  ---------------      ----- ------------  ---------------
     9      0.355935  1 F  py                32      0.301310  2 H  s          
     6      0.288231  1 F  py                12      0.250014  1 F  py         
    33      0.179588  2 H  s          

 Vector    6  Occ=0.000000D+00  E=-1.106120D-01
              MO Center= -3.4D-15,  8.2D-01, -7.5D-15, r^2= 1.2D+00
   Bfn.  Coefficient  Atom+Function         Bfn.  Coefficient  Atom+Function  
  ----- ------------  ---------------      ----- ------------  ---------------
    32      0.474401  2 H  s                  9     -0.404464  1 F  py         
     6     -0.329797  1 F  py                33      0.233961  2 H  s          
    31      0.208840  2 H  s          

 Vector    7  Occ=0.000000D+00  E=-5.815853D-03
              MO Center= -4.7D-15, -2.2D-01, -2.5D-15, r^2= 7.5D-01
   Bfn.  Coefficient  Atom+Function         Bfn.  Coefficient  Atom+Function  
  ----- ------------  ---------------      ----- ------------  ---------------
     4      1.237557  1 F  s                  3     -0.696068  1 F  s          
     2     -0.658691  1 F  s                 23      0.289240  1 F  d  2       
    21      0.167004  1 F  d  0       

 Vector    8  Occ=0.000000D+00  E=-3.306955D-03
              MO Center=  1.0D-14, -3.1D-01,  5.0D-15, r^2= 5.2D-01
   Bfn.  Coefficient  Atom+Function         Bfn.  Coefficient  Atom+Function  
  ----- ------------  ---------------      ----- ------------  ---------------
    23      0.544989  1 F  d  2               3      0.447174  1 F  s          
     4     -0.439450  1 F  s                 21      0.314492  1 F  d  0       
    18      0.297455  1 F  d  2              12      0.237050  1 F  py         
     6     -0.229341  1 F  py                16      0.171624  1 F  d  0       
     1     -0.155698  1 F  s          

 Vector    9  Occ=0.000000D+00  E= 3.784581D-01
              MO Center=  1.3D-14,  1.7D+00,  1.1D-14, r^2= 3.1D+00
   Bfn.  Coefficient  Atom+Function         Bfn.  Coefficient  Atom+Function  
  ----- ------------  ---------------      ----- ------------  ---------------
    33      1.737404  2 H  s                 32     -1.205192  2 H  s          
     4     -0.532640  1 F  s                 12     -0.268785  1 F  py         
     2      0.166351  1 F  s          

 Vector   10  Occ=0.000000D+00  E= 7.284712D-01
              MO Center=  1.4D-14,  1.3D+00, -8.9D-18, r^2= 1.3D+00
   Bfn.  Coefficient  Atom+Function         Bfn.  Coefficient  Atom+Function  
  ----- ------------  ---------------      ----- ------------  ---------------
    37      0.939509  2 H  px                11      0.331832  1 F  px         
     8     -0.279347  1 F  px         

 Vector   11  Occ=0.000000D+00  E= 7.284713D-01
              MO Center=  9.8D-16,  1.3D+00,  1.0D-14, r^2= 1.3D+00
   Bfn.  Coefficient  Atom+Function         Bfn.  Coefficient  Atom+Function  
  ----- ------------  ---------------      ----- ------------  ---------------
    39      0.939509  2 H  pz                13      0.331831  1 F  pz         
    10     -0.279348  1 F  pz         

 Vector   12  Occ=0.000000D+00  E= 9.230111D-01
              MO Center=  6.2D-16,  1.1D+00, -3.5D-15, r^2= 1.7D+00
   Bfn.  Coefficient  Atom+Function         Bfn.  Coefficient  Atom+Function  
  ----- ------------  ---------------      ----- ------------  ---------------
    38      0.833532  2 H  py                12     -0.510799  1 F  py         
    32      0.477577  2 H  s                  9      0.423379  1 F  py         
    33     -0.329286  2 H  s                  4      0.269542  1 F  s          
     6      0.161972  1 F  py         

 Vector   13  Occ=0.000000D+00  E= 1.003971D+00
              MO Center= -4.4D-15,  2.3D-02,  6.7D-16, r^2= 1.8D+00
   Bfn.  Coefficient  Atom+Function         Bfn.  Coefficient  Atom+Function  
  ----- ------------  ---------------      ----- ------------  ---------------
    11      1.173385  1 F  px                 8     -0.681638  1 F  px         
    37     -0.522170  2 H  px                 5     -0.228181  1 F  px         

 Vector   14  Occ=0.000000D+00  E= 1.003971D+00
              MO Center=  6.9D-16,  2.3D-02,  2.9D-15, r^2= 1.8D+00
   Bfn.  Coefficient  Atom+Function         Bfn.  Coefficient  Atom+Function  
  ----- ------------  ---------------      ----- ------------  ---------------
    13      1.173385  1 F  pz                10     -0.681638  1 F  pz         
    39     -0.522170  2 H  pz                 7     -0.228181  1 F  pz         

 Vector   15  Occ=0.000000D+00  E= 1.546063D+00
              MO Center=  4.9D-15,  4.6D-01,  1.6D-15, r^2= 2.5D+00
   Bfn.  Coefficient  Atom+Function         Bfn.  Coefficient  Atom+Function  
  ----- ------------  ---------------      ----- ------------  ---------------
    12      1.588240  1 F  py                38      1.223474  2 H  py         
     4      1.180873  1 F  s                  9     -0.585524  1 F  py         
     2     -0.530768  1 F  s                 33     -0.503111  2 H  s          
    23     -0.309801  1 F  d  2              32     -0.273359  2 H  s          
    31     -0.230408  2 H  s                  1     -0.203075  1 F  s          


 center of mass
 --------------
 x =   0.00000000 y =  -0.15561353 z =   0.00000000

 moments of inertia (a.u.)
 ------------------
           9.411105500509           0.000000000000           0.000000000000
           0.000000000000           0.000000000000           0.000000000000
           0.000000000000           0.000000000000           9.411105500509

  Mulliken analysis of the total density
  --------------------------------------

    Atom       Charge   Shell Charges
 -----------   ------   -------------------------------------------------------
    1 F    9     9.23   1.95  1.09  0.28  0.67  1.49  2.32  1.42  0.00  0.00  0.00
    2 H    1     0.77   0.13  0.41  0.21  0.00  0.01  0.00

       Multipole analysis of the density wrt the origin
       ------------------------------------------------

     L   x y z        total         open         nuclear
     -   - - -        -----         ----         -------
     0   0 0 0     -0.000000      0.000000     10.000000

     1   1 0 0      0.000000      0.000000      0.000000
     1   0 1 0      0.767664      0.000000     -0.000000
     1   0 0 1      0.000000      0.000000      0.000000

     2   2 0 0     -4.488165      0.000000      0.000000
     2   1 1 0      0.000000      0.000000      0.000000
     2   1 0 1      0.000000      0.000000      0.000000
     2   0 2 0     -1.486801      0.000000      8.850059
     2   0 1 1      0.000000      0.000000      0.000000
     2   0 0 2     -4.488167      0.000000      0.000000


 Parallel integral file used       3 records with       0 large values

 ------------------------------------
     Number of active orbitals      8
     Number of active alpha electrons      5
     Number of active beta electrons       5
 ------------------------------------
                   NWChem Extensible Many-Electron Theory Module
                   ---------------------------------------------

              ======================================================
                   This portion of the program was automatically
                  generated by a Tensor Contraction Engine (TCE).
                  The development of this portion of the program
                 and TCE was supported by US Department of Energy,
                Office of Science, Office of Basic Energy Science.
                      TCE is a product of Battelle and PNNL.
              Please cite: S.Hirata, J.Phys.Chem.A 107, 9887 (2003).
              ======================================================

                                        HF


            General Information
            -------------------
      Number of processors :     1
         Wavefunction type : Restricted Hartree-Fock
          No. of electrons :    10
           Alpha electrons :     5
            Beta electrons :     5
           No. of orbitals :    88
            Alpha orbitals :    44
             Beta orbitals :    44
        Alpha frozen cores :     0
         Beta frozen cores :     0
     Alpha frozen virtuals :    36
      Beta frozen virtuals :    36
         Spin multiplicity : singlet 
    Number of AO functions :    44
       Number of AO shells :    16
        Use of symmetry is : off
      Symmetry adaption is : off
         Schwarz screening : 0.10D-09

          Correlation Information
          -----------------------
          Calculation type : Coupled-cluster singles & doubles                           
   Perturbative correction : none                                                        
            Max iterations :      500
        Residual threshold : 0.10D-06
     T(0) DIIS level shift : 0.00D+00
     L(0) DIIS level shift : 0.00D+00
     T(1) DIIS level shift : 0.00D+00
     L(1) DIIS level shift : 0.00D+00
     T(R) DIIS level shift : 0.00D+00
     T(I) DIIS level shift : 0.00D+00
   CC-T/L Amplitude update :  5-th order DIIS
                I/O scheme : Global Array Library
        L-threshold :  0.10D-06
        EOM-threshold :  0.10D-06
 no EOMCCSD initial starts read in
 TCE RESTART OPTIONS
 READ_INT:   F
 WRITE_INT:  F
 READ_TA:    F
 WRITE_TA:   F
 READ_XA:    F
 WRITE_XA:   F
 READ_IN3:   F
 WRITE_IN3:  F
 SLICE:      F
 D4D5:       F
 quantumc:   T
 qrotation:  F
 pwtce:      F
 qducc:      F
 nacto:                         0
 nrotv:                         0
 nrot:                          0

            Memory Information
            ------------------
          Available GA space size is    1610610800 doubles
          Available MA space size is    1610610316 doubles

 Maximum block size supplied by input
 Maximum block size         1 doubles

 tile_dim =      1

 Block   Spin    Irrep     Size     Offset   Alpha
 -------------------------------------------------
   1    alpha     a      1 doubles       0       1
   2    alpha     a      1 doubles       1       2
   3    alpha     a      1 doubles       2       3
   4    alpha     a      1 doubles       3       4
   5    alpha     a      1 doubles       4       5
   6    beta      a      1 doubles       5       1
   7    beta      a      1 doubles       6       2
   8    beta      a      1 doubles       7       3
   9    beta      a      1 doubles       8       4
  10    beta      a      1 doubles       9       5
  11    alpha     a      1 doubles      10      11
  12    alpha     a      1 doubles      11      12
  13    alpha     a      1 doubles      12      13
  14    beta      a      1 doubles      13      11
  15    beta      a      1 doubles      14      12
  16    beta      a      1 doubles      15      13

 Global array virtual files algorithm will be used

 Parallel file system coherency ......... OK

 Integral file          = ./HF.aoints.0
 Record size in doubles =  65536        No. of integs per rec  =  43688
 Max. records in memory =     18        Max. records in file   = 250301
 No. of bits per label  =      8        No. of bits per value  =     64


 #quartets = 9.316D+03 #integrals = 1.251D+05 #direct =  0.0% #cached =100.0%


 Fock matrix recomputed
 1-e file size   =               64
 1-e file name   = ./HF.f1
 Cpu & wall time / sec            0.1            0.1
 4-electron integrals stored in orbital form

 v2    file size   =              666
 4-index algorithm nr.  13 is used
 imaxsize =       30
 imaxsize ichop =        0
 begin_one_electron_integrals
    1    1       -40.7445275704
    4    1         0.5602970879
    5    1        -0.0329598161
    6    1        -0.0765429782
    7    1        -0.6783122880
    8    1         0.3759746636
    2    2        -8.3371966132
    3    3        -8.3371999889
    1    4         0.5602970879
    4    4        -9.2287023916
    5    4         0.1056558619
    6    4         0.2903854822
    7    4         1.9318415515
    8    4        -0.9212406354
    1    5        -0.0329598161
    4    5         0.1056558619
    5    5        -6.4072223135
    6    5         2.7056805591
    7    5        -0.3351068103
    8    5         0.7121198794
    1    6        -0.0765429782
    4    6         0.2903854822
    5    6         2.7056805591
    6    6        -5.7999391532
    7    6        -0.0488723924
    8    6        -0.2833624256
    1    7        -0.6783122880
    4    7         1.9318415515
    5    7        -0.3351068103
    6    7        -0.0488723924
    7    7        -5.4990259095
    8    7         0.3913095216
    1    8         0.3759746636
    4    8        -0.9212406354
    5    8         0.7121198794
    6    8        -0.2833624256
    7    8         0.3913095216
    8    8        -5.0315251592
 end_one_electron_integrals
 begin_two_electron_integrals
    1    1    1    1        5.3700129153
    2    1    2    1        0.0401082711
    3    1    3    1        0.0401083275
    4    1    1    1       -0.5189249369
    4    1    4    1        0.0831286389
    4    1    2    2       -0.0142263341
    4    1    3    3       -0.0142263504
    5    1    1    1        0.0189575787
    5    1    4    1       -0.0039306117
    5    1    5    1        0.0221430947
    5    1    2    2        0.0008236594
    5    1    3    3        0.0008236590
    5    1    4    4       -0.0008853965
    6    1    1    1        0.0565081866
    6    1    4    1       -0.0079185191
    6    1    5    1       -0.0239394712
    6    1    6    1        0.0276837068
    6    1    2    2        0.0016262569
    6    1    3    3        0.0016262501
    6    1    4    4        0.0046007343
    6    1    5    4       -0.0253455592
    6    1    5    5       -0.0003955206
    7    1    1    1        0.5354669487
    7    1    4    1       -0.0881547921
    7    1    5    1        0.0084966579
    7    1    6    1        0.0035752379
    7    1    7    1        0.0951869211
    7    1    2    2        0.0151998880
    7    1    3    3        0.0151996236
    7    1    4    4        0.0213435783
    7    1    5    4        0.0038113765
    7    1    6    4       -0.0067553283
    7    1    5    5        0.0056508650
    7    1    6    5       -0.0059716630
    7    1    6    6        0.0081335115
    8    1    1    1       -0.2942188682
    8    1    4    1        0.0496208957
    8    1    5    1       -0.0143971561
    8    1    6    1        0.0085871887
    8    1    7    1       -0.0544930100
    8    1    8    1        0.0384575831
    8    1    2    2       -0.0034193759
    8    1    3    3       -0.0034161527
    8    1    4    4       -0.0108813282
    8    1    5    4       -0.0109177123
    8    1    6    4        0.0117168360
    8    1    7    4        0.0140071543
    8    1    5    5       -0.0085857607
    8    1    6    5        0.0078013836
    8    1    7    5        0.0083917794
    8    1    6    6       -0.0114974926
    8    1    7    6       -0.0109009965
    8    1    7    7       -0.0145070485
    2    2    1    1        1.2393698776
    2    2    2    2        0.9045321376
    3    2    3    2        0.0445892083
    4    2    2    1        0.0408272002
    4    2    3    1        0.0000000010
    4    2    4    2        0.1762460307
    5    2    2    1       -0.0009870782
    5    2    3    1       -0.0000000001
    5    2    4    2       -0.0029777172
    5    2    5    2        0.0275610463
    5    2    4    3       -0.0000000006
    6    2    2    1       -0.0038192132
    6    2    4    2       -0.0124833226
    6    2    5    2       -0.0225356065
    6    2    6    2        0.0222331372
    6    2    4    3        0.0000000004
    7    2    2    1       -0.0142836930
    7    2    3    1        0.0000000012
    7    2    4    2        0.0044533206
    7    2    5    2        0.0023053308
    7    2    6    2        0.0008296530
    7    2    7    2        0.0449792567
    7    2    4    3        0.0000000083
    7    2    5    3        0.0000000002
    7    2    6    3       -0.0000000003
    8    2    2    1        0.0253767188
    8    2    4    2        0.0786159102
    8    2    5    2       -0.0040795197
    8    2    6    2       -0.0049766680
    8    2    7    2       -0.0058246639
    8    2    8    2        0.0583519701
    8    2    4    3       -0.0000000028
    8    2    5    3        0.0000000006
    8    2    6    3       -0.0000000005
    8    2    7    3       -0.0000000037
    3    3    1    1        1.2393706462
    3    3    2    2        0.8153540804
    3    3    3    3        0.9045328565
    4    3    2    1       -0.0000000010
    4    3    3    1        0.0408272517
    4    3    4    3        0.1762461431
    5    3    2    1        0.0000000001
    5    3    3    1       -0.0009870812
    5    3    4    2        0.0000000006
    5    3    4    3       -0.0029777211
    5    3    5    3        0.0275610405
    6    3    3    1       -0.0038192609
    6    3    4    2       -0.0000000004
    6    3    4    3       -0.0124835476
    6    3    5    3       -0.0225356030
    6    3    6    3        0.0222331661
    7    3    2    1       -0.0000000012
    7    3    3    1       -0.0142847903
    7    3    4    2       -0.0000000083
    7    3    5    2       -0.0000000002
    7    3    6    2        0.0000000003
    7    3    4    3        0.0044487512
    7    3    5    3        0.0023055279
    7    3    6    3        0.0008298621
    7    3    7    3        0.0449788071
    8    3    3    1        0.0253894670
    8    3    4    2        0.0000000028
    8    3    5    2       -0.0000000006
    8    3    6    2        0.0000000005
    8    3    7    2        0.0000000037
    8    3    4    3        0.0786710818
    8    3    5    3       -0.0040803590
    8    3    6    3       -0.0049808531
    8    3    7    3       -0.0058230980
    8    3    8    3        0.0584046260
    4    4    1    1        1.2833374269
    4    4    4    1       -0.0209540837
    4    4    2    2        0.8714908547
    4    4    3    3        0.8714912040
    4    4    4    4        0.9048024379
    5    4    1    1       -0.0398793332
    5    4    4    1        0.0001139082
    5    4    5    1        0.0231798236
    5    4    2    2       -0.0180579318
    5    4    3    3       -0.0180579442
    5    4    4    4       -0.0278296699
    5    4    5    4        0.1099611410
    6    4    1    1       -0.0575922079
    6    4    4    1        0.0028103634
    6    4    5    1       -0.0220709970
    6    4    6    1        0.0236350266
    6    4    2    2       -0.0301203038
    6    4    3    3       -0.0301204196
    6    4    4    4       -0.0219612444
    6    4    5    4       -0.0897981777
    6    4    6    4        0.0817463960
    6    4    5    5       -0.0231252970
    7    4    1    1       -0.5037013459
    7    4    4    1        0.0229676854
    7    4    5    1        0.0019419118
    7    4    6    1       -0.0058035594
    7    4    7    1       -0.0213968243
    7    4    2    2       -0.1577348979
    7    4    3    3       -0.1577370745
    7    4    4    4       -0.1815430383
    7    4    5    4        0.0131087498
    7    4    6    4        0.0037657798
    7    4    7    4        0.1186602397
    7    4    5    5       -0.1230513336
    7    4    6    5        0.1077753019
    7    4    6    6       -0.1195025972
    8    4    1    1        0.2559836205
    8    4    4    1       -0.0129678673
    8    4    5    1       -0.0038841737
    8    4    6    1        0.0061162764
    8    4    7    1        0.0150631198
    8    4    8    1        0.0003055721
    8    4    2    2        0.1097936839
    8    4    3    3        0.1098184980
    8    4    4    4        0.0844671875
    8    4    5    4       -0.0083251658
    8    4    6    4       -0.0044565880
    8    4    7    4       -0.0199488655
    8    4    8    4        0.0888358713
    8    4    5    5        0.0083766673
    8    4    6    5       -0.0167475236
    8    4    7    5        0.0153028548
    8    4    6    6        0.0150364297
    8    4    7    6       -0.0105566247
    8    4    7    7        0.0513006521
    5    5    1    1        0.8566400444
    5    5    4    1       -0.0079181454
    5    5    5    1        0.0017220253
    5    5    2    2        0.6126256878
    5    5    3    3        0.6126258584
    5    5    4    4        0.6484575872
    5    5    5    4        0.0145687328
    5    5    5    5        0.5940165566
    6    5    1    1       -0.5128055690
    6    5    4    1        0.0085328427
    6    5    5    1        0.0000318131
    6    5    6    1       -0.0017861468
    6    5    2    2       -0.2716490940
    6    5    3    3       -0.2716492397
    6    5    4    4       -0.2984608511
    6    5    5    4        0.0310748954
    6    5    6    4        0.0071860085
    6    5    5    5       -0.1197947796
    6    5    6    5        0.2464627254
    7    5    1    1        0.0771906600
    7    5    4    1       -0.0018814194
    7    5    5    1       -0.0201533426
    7    5    6    1        0.0223295595
    7    5    7    1       -0.0020169175
    7    5    2    2        0.0290670919
    7    5    3    3        0.0290672981
    7    5    4    4        0.0351815367
    7    5    5    4       -0.0559861401
    7    5    6    4        0.0515790733
    7    5    7    4       -0.0211791962
    7    5    5    5        0.0176518442
    7    5    6    5       -0.0166342945
    7    5    7    5        0.0543458706
    7    5    6    6        0.0072615099
    8    5    1    1       -0.1585132412
    8    5    4    1        0.0054574058
    8    5    5    1       -0.0109349533
    8    5    6    1        0.0110522475
    8    5    7    1       -0.0063409463
    8    5    8    1        0.0088235213
    8    5    2    2       -0.0613846668
    8    5    3    3       -0.0613854521
    8    5    4    4       -0.0588906024
    8    5    5    4       -0.0741853968
    8    5    6    4        0.0628462620
    8    5    7    4        0.0300735193
    8    5    8    4       -0.0150534749
    8    5    5    5       -0.0637230330
    8    5    6    5        0.0165542567
    8    5    7    5        0.0275330784
    8    5    8    5        0.0887555691
    8    5    6    6       -0.0635919014
    8    5    7    6       -0.0393750320
    8    5    7    7       -0.0388929678
    6    6    1    1        0.8283887014
    6    6    4    1       -0.0099907853
    6    6    5    1        0.0055117416
    6    6    6    1       -0.0042717041
    6    6    2    2        0.5631054105
    6    6    3    3        0.5631055858
    6    6    4    4        0.5922686587
    6    6    5    4        0.0264964491
    6    6    6    4       -0.0311163845
    6    6    5    5        0.5801798573
    6    6    6    5       -0.0600964073
    6    6    6    6        0.6022192048
    7    6    1    1       -0.0039129914
    7    6    4    1       -0.0012469740
    7    6    5    1        0.0215647596
    7    6    6    1       -0.0233879884
    7    6    7    1        0.0053579820
    7    6    2    2        0.0034805931
    7    6    3    3        0.0034806356
    7    6    4    4       -0.0015901320
    7    6    5    4        0.0636916625
    7    6    6    4       -0.0587423925
    7    6    7    4        0.0088958791
    7    6    5    5        0.0039474118
    7    6    6    5       -0.0033117980
    7    6    7    5       -0.0510817034
    7    6    6    6        0.0062588000
    7    6    7    6        0.0550143897
    8    6    1    1        0.0913422065
    8    6    4    1       -0.0039803419
    8    6    5    1        0.0096005438
    8    6    6    1       -0.0098145545
    8    6    7    1        0.0042971302
    8    6    8    1       -0.0079643845
    8    6    2    2        0.0168826023
    8    6    3    3        0.0168804888
    8    6    4    4        0.0145337519
    8    6    5    4        0.0560500244
    8    6    6    4       -0.0485307449
    8    6    7    4       -0.0199493173
    8    6    8    4        0.0066235648
    8    6    5    5        0.0291107758
    8    6    6    5       -0.0016409939
    8    6    7    5       -0.0272441059
    8    6    8    5       -0.0625331466
    8    6    6    6        0.0395631401
    8    6    7    6        0.0317946241
    8    6    8    6        0.0511160396
    8    6    7    7        0.0082998186
    7    7    1    1        1.1196769739
    7    7    4    1       -0.0257575407
    7    7    5    1       -0.0055920242
    7    7    6    1        0.0104199973
    7    7    7    1        0.0232374052
    7    7    2    2        0.7253849975
    7    7    3    3        0.7253849158
    7    7    4    4        0.7539199202
    7    7    5    4       -0.0355794381
    7    7    6    4       -0.0024919779
    7    7    7    4       -0.1378600903
    7    7    5    5        0.5657593936
    7    7    6    5       -0.2406827206
    7    7    7    5        0.0383042517
    7    7    6    6        0.5184049317
    7    7    7    6       -0.0117180855
    7    7    7    7        0.6780959174
    8    7    1    1       -0.1003295283
    8    7    4    1        0.0142637189
    8    7    5    1        0.0073790713
    8    7    6    1       -0.0100754147
    8    7    7    1       -0.0146203088
    8    7    8    1        0.0007944559
    8    7    2    2        0.0117970635
    8    7    3    3        0.0117989269
    8    7    4    4        0.0236795725
    8    7    5    4        0.0277139056
    8    7    6    4       -0.0231774539
    8    7    7    4       -0.0028323789
    8    7    8    4       -0.0245465631
    8    7    5    5        0.0325959865
    8    7    6    5       -0.0160262340
    8    7    7    5       -0.0130649483
    8    7    8    5       -0.0208268315
    8    7    6    6        0.0303385393
    8    7    7    6        0.0161733714
    8    7    8    6        0.0153101305
    8    7    7    7        0.0200579874
    8    7    8    7        0.0362978941
    8    8    1    1        1.0939202913
    8    8    4    1       -0.0124235792
    8    8    5    1        0.0003821371
    8    8    6    1        0.0018695649
    8    8    7    1        0.0122425230
    8    8    8    1       -0.0072564161
    8    8    2    2        0.7766037171
    8    8    3    3        0.7766335073
    8    8    4    4        0.8205912917
    8    8    5    4       -0.0338985449
    8    8    6    4       -0.0083043684
    8    8    7    4       -0.1580213342
    8    8    8    4        0.0253599463
    8    8    5    5        0.6207068121
    8    8    6    5       -0.2716343299
    8    8    7    5        0.0224021726
    8    8    8    5       -0.0320164567
    8    8    6    6        0.5589799764
    8    8    7    6        0.0039916814
    8    8    8    6       -0.0030412833
    8    8    7    7        0.6920829589
    8    8    8    7        0.0253687952
    8    8    8    8        0.8145296559
 end_two_electron_integrals
 enrep_tce =    2.8700581186769014     
  EHF(A)             =       -99.85399555
  EHF(total)         =       -99.85399555
  Shift (HFtot-HFA)  =         0.00000000
 Cpu & wall time / sec            0.4            0.4
 T1-number-of-tasks                   15

 t1 file size   =               15
 t1 file name   = ./HF.t1
 t1 file handle =       -998
 T2-number-of-boxes                  315

 t2 file size   =              315
 t2 file name   = ./HF.t2
 t2 file handle =       -996
CCSD iterations
 ---------------------------------------------------------
 Iter          Residuum       Correlation     Cpu    Wall 
 ---------------------------------------------------------
NEW TASK SCHEDULING
CCSD_T1_NTS --- OK
CCSD_T2_NTS --- OK
    1   1.0012033014933  -0.1663862651851     1.8     2.7
    2   3.6787900851082   0.1086078406924     1.7     2.7
    3  16.7542249174430  -0.7796084643229     1.8     2.7
    4  54.5419092156741   2.5734580806389     2.0     2.7
    5 386.9721387225496  -5.8476120105419     1.9     2.7
 MICROCYCLE DIIS UPDATE:                    5                    5
    6   0.2182864234546  -0.1018647460481     1.7     2.7
    7   1.0076254273251  -0.0957367267744     1.9     2.7
    8   4.8942554412289  -0.1908518800380     1.9     2.7
    9  22.3407999617920   0.3005377109673     1.7     2.7
   10 133.8255041005833  -1.6639620578672     1.8     2.7
 MICROCYCLE DIIS UPDATE:                   10                    5
   11   0.0550882712934  -0.1115054273108     2.0     2.8
   12   0.2553885135046  -0.1164020667196     2.0     2.8
   13   1.2268751053466  -0.0979136982642     1.8     2.7
   14   6.0248045295197  -0.2033847284002     1.7     2.6
   15  27.4663768012496   0.3929880953410     1.7     2.7
 MICROCYCLE DIIS UPDATE:                   15                    5
   16   0.0150258651799  -0.1139164409136     1.9     2.7
   17   0.0711771155751  -0.1158621311938     2.0     2.7
   18   0.3437751850022  -0.1088205743749     1.7     2.7
   19   1.6734845212884  -0.1435661144495     1.8     2.7
   20   7.9794990632408   0.0287318239625     1.8     2.7
 MICROCYCLE DIIS UPDATE:                   20                    5
   21   0.0034952968597  -0.1147677344711     2.1     2.7
   22   0.0166440526798  -0.1151368645224     1.8     2.7
   23   0.0807970043829  -0.1135149685149     1.8     2.7
   24   0.3937261607532  -0.1213741378945     1.8     2.7
   25   1.9117988652785  -0.0829635672330     1.9     2.7
 MICROCYCLE DIIS UPDATE:                   25                    5
   26   0.0004670014249  -0.1148915078130     2.0     2.7
   27   0.0020702335784  -0.1148994988231     1.8     2.7
   28   0.0100121635400  -0.1147436709250     1.9     2.7
   29   0.0488668555894  -0.1155541659362     1.8     2.7
   30   0.2391009186959  -0.1114062065833     1.9     2.7
 MICROCYCLE DIIS UPDATE:                   30                    5
   31   0.0000520517112  -0.1148708602787     1.8     2.7
   32   0.0001075246332  -0.1148678895882     1.7     2.7
   33   0.0004342852685  -0.1148778816090     1.6     2.7
   34   0.0019225007493  -0.1148423519170     1.8     2.7
   35   0.0087251155375  -0.1149770245588     1.8     2.7
 MICROCYCLE DIIS UPDATE:                   35                    5
   36   0.0000109663669  -0.1148703601745     2.0     2.7
   37   0.0000335438300  -0.1148708480340     1.8     2.7
   38   0.0001465562195  -0.1148693397925     2.0     2.9
   39   0.0006744110422  -0.1148774458687     1.8     2.8
   40   0.0031659241258  -0.1148334135320     2.0     3.1
 MICROCYCLE DIIS UPDATE:                   40                    5
   41   0.0000025145264  -0.1148705948736     2.1     3.2
   42   0.0000040263074  -0.1148703521268     1.7     2.7
   43   0.0000150897976  -0.1148708296134     1.8     2.7
   44   0.0000647872805  -0.1148691602609     1.7     2.7
   45   0.0002872018964  -0.1148755842976     1.7     2.6
 MICROCYCLE DIIS UPDATE:                   45                    5
   46   0.0000006875246  -0.1148704218786     1.8     2.7
   47   0.0000016801393  -0.1148704753722     1.9     2.6
   48   0.0000068860951  -0.1148704813552     1.9     2.7
   49   0.0000306697928  -0.1148705273930     1.9     2.7
   50   0.0001411349251  -0.1148699615112     1.7     2.7
 MICROCYCLE DIIS UPDATE:                   50                    5
   51   0.0000001794966  -0.1148704849597     2.0     2.7
   52   0.0000003122138  -0.1148704654367     1.7     2.7
   53   0.0000012362105  -0.1148705064026     1.8     2.6
   54   0.0000054878154  -0.1148703508526     1.8     2.7
   55   0.0000250532721  -0.1148710027800     1.8     2.7
 MICROCYCLE DIIS UPDATE:                   55                    5
   56   0.0000000530907  -0.1148704712642     2.0     2.7
 -----------------------------------------------------------------
 Iterations converged
 CCSD correlation energy / hartree =        -0.114870471264154
 CCSD total energy / hartree       =       -99.968866017468244

 Singles contributions

 Doubles contributions
     6a   (alpha)     6a   (beta ) ---     5a   (alpha)     5a   (beta )       -0.3680964174
     6a   (alpha)     7a   (beta ) ---     4a   (alpha)     5a   (beta )       -0.0217617627
     6a   (alpha)     7a   (beta ) ---     5a   (alpha)     4a   (beta )       -0.0268430491
     7a   (alpha)     6a   (beta ) ---     4a   (alpha)     5a   (beta )       -0.0268430491
     7a   (alpha)     6a   (beta ) ---     5a   (alpha)     4a   (beta )       -0.0217617627
     7a   (alpha)     7a   (beta ) ---     4a   (alpha)     4a   (beta )       -0.0203499093
 Ground state specification:
 exp(T)|Ref>~(1+T)|Ref>
 ------- a(p)+/a(q) strings ----------

 singles norm

 doubles norm

 Reference string
  0.93844190437392783      :(1a)+ (2a)+ (3a)+ (4a)+ (5a)+ (1b)+ (2b)+ (3b)+ (4b)+ (5b)+ |0>

 Singles strings

 Doubles strings
 -0.34543710297974028      :(6a)+ (6b)+ (5b)  (5a)  (1a)+ (2a)+ (3a)+ (4a)+ (5a)+ (1b)+ (2b)+ (3b)+ (4b)+ (5b)+ |0>
 -------------------------------------

 Parallel integral file used       3 records with       0 large values


 Task  times  cpu:      104.0s     wall:      153.3s


                                NWChem Input Module
                                -------------------


 Summary of allocated global arrays
-----------------------------------
  No active global arrays


MA_summarize_allocated_blocks: starting scan ...
MA_summarize_allocated_blocks: scan completed: 0 heap blocks, 0 stack blocks
MA usage statistics:

	allocation statistics:
					      heap	     stack
					      ----	     -----
	current number of blocks	         0	         0
	maximum number of blocks	        18	        42
	current total bytes		         0	         0
	maximum total bytes		   9520928	  26465432
	maximum total K-bytes		      9521	     26466
	maximum total M-bytes		        10	        27


                                     CITATION
                                     --------
                Please cite the following reference when publishing
                           results obtained with NWChem:

          E. Apra, E. J. Bylaska, W. A. de Jong, N. Govind, K. Kowalski,
       T. P. Straatsma, M. Valiev, H. J. J. van Dam, Y. Alexeev, J. Anchell,
       V. Anisimov, F. W. Aquino, R. Atta-Fynn, J. Autschbach, N. P. Bauman,
     J. C. Becca, D. E. Bernholdt, K. Bhaskaran-Nair, S. Bogatko, P. Borowski,
         J. Boschen, J. Brabec, A. Bruner, E. Cauet, Y. Chen, G. N. Chuev,
      C. J. Cramer, J. Daily, M. J. O. Deegan, T. H. Dunning Jr., M. Dupuis,
   K. G. Dyall, G. I. Fann, S. A. Fischer, A. Fonari, H. Fruchtl, L. Gagliardi,
      J. Garza, N. Gawande, S. Ghosh, K. Glaesemann, A. W. Gotz, J. Hammond,
       V. Helms, E. D. Hermes, K. Hirao, S. Hirata, M. Jacquelin, L. Jensen,
   B. G. Johnson, H. Jonsson, R. A. Kendall, M. Klemm, R. Kobayashi, V. Konkov,
      S. Krishnamoorthy, M. Krishnan, Z. Lin, R. D. Lins, R. J. Littlefield,
      A. J. Logsdail, K. Lopata, W. Ma, A. V. Marenich, J. Martin del Campo,
   D. Mejia-Rodriguez, J. E. Moore, J. M. Mullin, T. Nakajima, D. R. Nascimento,
    J. A. Nichols, P. J. Nichols, J. Nieplocha, A. Otero-de-la-Roza, B. Palmer,
    A. Panyala, T. Pirojsirikul, B. Peng, R. Peverati, J. Pittner, L. Pollack,
   R. M. Richard, P. Sadayappan, G. C. Schatz, W. A. Shelton, D. W. Silverstein,
   D. M. A. Smith, T. A. Soares, D. Song, M. Swart, H. L. Taylor, G. S. Thomas,
            V. Tipparaju, D. G. Truhlar, K. Tsemekhman, T. Van Voorhis,
      A. Vazquez-Mayagoitia, P. Verma, O. Villa, A. Vishnu, K. D. Vogiatzis,
        D. Wang, J. H. Weare, M. J. Williamson, T. L. Windus, K. Wolinski,
        A. T. Wong, Q. Wu, C. Yang, Q. Yu, M. Zacharias, Z. Zhang, Y. Zhao,
                                and R. J. Harrison
                        "NWChem: Past, present, and future
                         J. Chem. Phys. 152, 184102 (2020)
                               doi:10.1063/5.0004997

                                      AUTHORS
                                      -------
  E. Apra, E. J. Bylaska, N. Govind, K. Kowalski, M. Valiev, D. Mejia-Rodriguez,
       A. Kunitsa, N. P. Bauman, A. Panyala, W. A. de Jong, T. P. Straatsma,
        H. J. J. van Dam, D. Wang, T. L. Windus, J. Hammond, J. Autschbach,
    K. Bhaskaran-Nair, J. Brabec, K. Lopata, S. A. Fischer, S. Krishnamoorthy,
     M. Jacquelin, W. Ma, M. Klemm, O. Villa, Y. Chen, V. Anisimov, F. Aquino,
    S. Hirata, M. T. Hackler, Eric Hermes, L. Jensen, J. E. Moore, J. C. Becca,
      V. Konjkov, T. Risthaus, M. Malagoli, A. Marenich, A. Otero-de-la-Roza,
        J. Mullin, P. Nichols, R. Peverati, J. Pittner, Y. Zhao, P.-D. Fan,
        A. Fonari, M. J. Williamson, R. J. Harrison, J. R. Rehr, M. Dupuis,
     D. Silverstein, D. M. A. Smith, J. Nieplocha, V. Tipparaju, M. Krishnan,
     B. E. Van Kuiken, A. Vazquez-Mayagoitia, M. Swart, Q. Wu, T. Van Voorhis,
     A. A. Auer, M. Nooijen, L. D. Crosby, E. Brown, G. Cisneros, G. I. Fann,
   H. Fruchtl, J. Garza, K. Hirao, R. A. Kendall, J. A. Nichols, K. Tsemekhman,
    K. Wolinski, J. Anchell, D. E. Bernholdt, P. Borowski, T. Clark, D. Clerc,
   H. Dachsel, M. J. O. Deegan, K. Dyall, D. Elwood, E. Glendening, M. Gutowski,
   A. C. Hess, J. Jaffe, B. G. Johnson, J. Ju, R. Kobayashi, R. Kutteh, Z. Lin,
   R. Littlefield, X. Long, B. Meng, T. Nakajima, S. Niu, L. Pollack, M. Rosing,
   K. Glaesemann, G. Sandrone, M. Stave, H. Taylor, G. Thomas, J. H. van Lenthe,
                               A. T. Wong, Z. Zhang.

 Total times  cpu:      107.4s     wall:      159.9s
