 argument  1 = input.nw
  NWChem w/ OpenMP: maximum threads =    1



============================== echo of input deck ==============================
 echo
 start HF
 title "HF"

 memory total 24 gb

 geometry units bohr
 symmetry c1
        F  0.00000000  0.00000000  0.00000000
        H  0.00000000  3.29175  0.00000000
 end

 basis spherical
   * library cc-pVTZ
 end

 mcscf
   active  8
   actelec 10
   multiplicity 1
   maxiter 40
   vectors input HF.mos
   vectors output HF.mos
 end

 task mcscf

 scf
   vectors input HF.mos
   vectors output HF-trash.mos
   noscf
 end

 tce
   2eorb
   2emet 13
   ccsd
   maxiter 500
 end

 set tce:print_integrals T
 set tce:qorb 8
 set tce:qela 5
 set tce:qelb 5

# set tce:qducc T
# set tce:nactv 3
# set tce:nonhf T
# set tce:ducc_model 3

 set tce:printtol 0.02

 task tce
================================================================================


                                         
                                         


             Northwest Computational Chemistry Package (NWChem) 7.0.1
             --------------------------------------------------------


                    Environmental Molecular Sciences Laboratory
                       Pacific Northwest National Laboratory
                                Richland, WA 99352

                              Copyright (c) 1994-2020
                       Pacific Northwest National Laboratory
                            Battelle Memorial Institute

             NWChem is an open-source computational chemistry package
                        distributed under the terms of the
                      Educational Community License (ECL) 2.0
             A copy of the license is included with this distribution
                              in the LICENSE.TXT file

                                  ACKNOWLEDGMENT
                                  --------------

            This software and its documentation were developed at the
            EMSL at Pacific Northwest National Laboratory, a multiprogram
            national laboratory, operated for the U.S. Department of Energy
            by Battelle under Contract Number DE-AC05-76RL01830. Support
            for this work was provided by the Department of Energy Office
            of Biological and Environmental Research, Office of Basic
            Energy Sciences, and the Office of Advanced Scientific Computing.


           Job information
           ---------------

    hostname        = WE46210
    program         = /home/baum612/code/nwchem/bin/LINUX64/nwchem
    date            = Tue May 21 10:10:56 2024

    compiled        = Tue_Apr_30_12:43:26_2024
    source          = /home/baum612/code/nwchem
    nwchem branch   = 7.0.0
    nwchem revision = nwchem_on_git-4191-g39d87d64de
    ga revision     = 5.8.1
    use scalapack   = F
    input           = input.nw
    prefix          = HF.
    data base       = ./HF.db
    status          = startup
    nproc           =        1
    time left       =     -1s



           Memory information
           ------------------

    heap     =  805306366 doubles =   6144.0 Mbytes
    stack    =  805306363 doubles =   6144.0 Mbytes
    global   = 1610612736 doubles =  12288.0 Mbytes (distinct from heap & stack)
    total    = 3221225465 doubles =  24576.0 Mbytes
    verify   = yes
    hardfail = no 


           Directory information
           ---------------------

  0 permanent = .
  0 scratch   = .




                                NWChem Input Module
                                -------------------


                                        HF
                                        --
 Turning off AUTOSYM since
 SYMMETRY directive was detected!


          ------
          auto-z
          ------
     1 autoz failed with cvr_scaling = 1.2 changing to 1.3
     2 autoz failed with cvr_scaling = 1.3 changing to 1.4
     3 autoz failed with cvr_scaling = 1.4 changing to 1.5
     4 autoz failed with cvr_scaling = 1.5 changing to 1.6
     5 autoz failed with cvr_scaling = 1.6 changing to 1.7

 AUTOZ failed to generate good internal coordinates.
 Cartesian coordinates will be used in optimizations.



                             Geometry "geometry" -> ""
                             -------------------------

 Output coordinates in a.u. (scale by  1.000000000 to convert to a.u.)

  No.       Tag          Charge          X              Y              Z
 ---- ---------------- ---------- -------------- -------------- --------------
    1 F                    9.0000     0.00000000    -0.32917500     0.00000000
    2 H                    1.0000     0.00000000     2.96257500     0.00000000

      Atomic Mass 
      ----------- 

      F                 18.998400
      H                  1.007825


 Effective nuclear repulsion energy (a.u.)       2.7341079973

            Nuclear Dipole moment (a.u.) 
            ----------------------------
        X                 Y               Z
 ---------------- ---------------- ----------------
     0.0000000000     0.0000000000     0.0000000000


            XYZ format geometry
            -------------------
     2
 geometry
 F                     0.00000000    -0.17419192     0.00000000
 H                     0.00000000     1.56772729     0.00000000



 Summary of "ao basis" -> "" (spherical)
 ------------------------------------------------------------------------------
       Tag                 Description            Shells   Functions and Types
 ---------------- ------------------------------  ------  ---------------------
 *                          cc-pVTZ                   on all atoms 


                      Basis "ao basis" -> "ao basis" (spherical)
                      -----
  F (Fluorine)
  ------------
            Exponent  Coefficients 
       -------------- ---------------------------------------------------------
  1 S  1.95000000E+04  0.000507
  1 S  2.92300000E+03  0.003923
  1 S  6.64500000E+02  0.020200
  1 S  1.87500000E+02  0.079010
  1 S  6.06200000E+01  0.230439
  1 S  2.14200000E+01  0.432872
  1 S  7.95000000E+00  0.349964
  1 S  8.81500000E-01 -0.007892

  2 S  1.95000000E+04 -0.000117
  2 S  2.92300000E+03 -0.000912
  2 S  6.64500000E+02 -0.004717
  2 S  1.87500000E+02 -0.019086
  2 S  6.06200000E+01 -0.059655
  2 S  2.14200000E+01 -0.140010
  2 S  7.95000000E+00 -0.176782
  2 S  8.81500000E-01  0.605043

  3 S  2.25700000E+00  1.000000

  4 S  3.04100000E-01  1.000000

  5 P  4.38800000E+01  0.016665
  5 P  9.92600000E+00  0.104472
  5 P  2.93000000E+00  0.317260

  6 P  9.13200000E-01  1.000000

  7 P  2.67200000E-01  1.000000

  8 D  3.10700000E+00  1.000000

  9 D  8.55000000E-01  1.000000

 10 F  1.91700000E+00  1.000000

  H (Hydrogen)
  ------------
            Exponent  Coefficients 
       -------------- ---------------------------------------------------------
  1 S  3.38700000E+01  0.006068
  1 S  5.09500000E+00  0.045308
  1 S  1.15900000E+00  0.202822

  2 S  3.25800000E-01  1.000000

  3 S  1.02700000E-01  1.000000

  4 P  1.40700000E+00  1.000000

  5 P  3.88000000E-01  1.000000

  6 D  1.05700000E+00  1.000000



 Summary of "ao basis" -> "ao basis" (spherical)
 ------------------------------------------------------------------------------
       Tag                 Description            Shells   Functions and Types
 ---------------- ------------------------------  ------  ---------------------
 F                          cc-pVTZ                 10       30   4s3p2d1f
 H                          cc-pVTZ                  6       14   3s2p1d



                            NWChem Direct MCSCF Module
                            --------------------------


                                        HF


     -----------------------------------
       Basis functions:             44
       Inactive shells:              0
       Active shells:                8
       Active electrons:            10
       Symmetry:                    a       
       Multiplicity:                 1
       Orbital rotations:          288
     -----------------------------------

     -----------------------------------
       E2 extrapolation:             F
       Conjugacy:                    T
       Micro CI relax:               T
       Canonical orbitals:           T
       Maximum iterations:          40
       Converge threshold:    1.00E-04
       Conjugacy resets:            20
       Initial levelshift:        0.10
     -----------------------------------

 Loading old vectors from job with title :

HF


   input molecular orbitals = ./HF.mos
  output molecular orbtials = ./HF.mos

       No. of determinants:          3136


  Starting Orbital Energies
   -26.339716    -1.542629    -0.662592    -0.662591    -0.550206    -0.125543
    -0.005606    -0.003269     0.379923     0.728497     0.728497     0.894883
     0.995913     0.995913     1.505663     2.250585     2.250585     2.262709
     2.262709     2.585103     3.408352     3.408352     3.471227     3.471227
     3.574777     3.867274     3.867274     4.115438     5.066006     5.066006
     5.077596     7.359648     7.359648     7.365779     7.365779     7.392114
     7.396081     7.396081     8.426444     8.837854     8.837854     8.842734
     8.842734     9.637277

  Orbital Symmetry Irreps
a    a    a    a    a    a    a    a    a    a    a    a    a    a    a   
a    a    a    a    a    a    a    a    a    a    a    a    a    a    a   
a    a    a    a    a    a    a    a    a    a    a    a    a    a   

 Integral file          = ./HF.aoints.0
 Record size in doubles =  65536        No. of integs per rec  =  43688
 Max. records in memory =     18        Max. records in file   = 250332
 No. of bits per label  =      8        No. of bits per value  =     64


 #quartets = 9.315D+03 #integrals = 1.250D+05 #direct =  0.0% #cached =100.0%




          %%%%% MacroIteration   1 %%%%%


          Number of sigma calls:       31
                       o<<<<< (aa):             0.00
                       o<<<<< (bb):             0.01
                       o<<<<< (ab):             0.09
                       o<<<<< (total)           0.11
                       o<<<<< (aa) ff           0.00
                       o<<<<< (aa) gop          0.00
                       o<<<<< (aa) dot          0.00
                       o<<<<< (ab) str          0.00
                       o<<<<< (ab) gath         0.00
                       o<<<<< (ab) dotab        0.00
                       o<<<<< (ab) scat         0.00
                       o<<<<< (ab) sync         0.00
                       o<<<<< Density           0.01
                       o<<<<< Density one       0.00
                       o<<<<< Density two       0.00
                       o<<<<< Density ab        0.01
                       o<<<<< Spin adapt        0.38
                       o<<<<< Symm adapt        0.00

                       o<<<<< (ab) max sync:      0.00

           >>>| Valence CI:           -102.692744957471
           >>>| MCSCF energy:          -99.958636960206
           >>>| Gradient norm:          0.244989168D-02
     --- Warning:   59 Hessian diagonals < 0.05 ---

                              ----- Line search ------

        step       energy         lsg     num-lsg   num-lsh   lsrat    time
      ------- ---------------- --------- --------- --------- ------- --------
       0.0000     -99.95863696 -9.39D-07  0.00D+00  0.00D+00 0.0D+00      0.8

          Number of sigma calls:       21
                       o<<<<< (aa):             0.00
                       o<<<<< (bb):             0.00
                       o<<<<< (ab):             0.06
                       o<<<<< (total)           0.07
                       o<<<<< (aa) ff           0.00
                       o<<<<< (aa) gop          0.00
                       o<<<<< (aa) dot          0.00
                       o<<<<< (ab) str          0.00
                       o<<<<< (ab) gath         0.00
                       o<<<<< (ab) dotab        0.00
                       o<<<<< (ab) scat         0.00
                       o<<<<< (ab) sync         0.00
                       o<<<<< Density           0.01
                       o<<<<< Density one       0.00
                       o<<<<< Density two       0.00
                       o<<<<< Density ab        0.01
                       o<<<<< Spin adapt        0.31
                       o<<<<< Symm adapt        0.00

                       o<<<<< (ab) max sync:      0.00
       1.0000     -99.95863752 -1.85D-07 -1.85D-07  7.53D-07 2.0D-01      1.2

          Number of sigma calls:       18
                       o<<<<< (aa):             0.00
                       o<<<<< (bb):             0.00
                       o<<<<< (ab):             0.05
                       o<<<<< (total)           0.05
                       o<<<<< (aa) ff           0.00
                       o<<<<< (aa) gop          0.00
                       o<<<<< (aa) dot          0.00
                       o<<<<< (ab) str          0.00
                       o<<<<< (ab) gath         0.00
                       o<<<<< (ab) dotab        0.00
                       o<<<<< (ab) scat         0.00
                       o<<<<< (ab) sync         0.00
                       o<<<<< Density           0.01
                       o<<<<< Density one       0.00
                       o<<<<< Density two       0.00
                       o<<<<< Density ab        0.01
                       o<<<<< Spin adapt        0.21
                       o<<<<< Symm adapt        0.00

                       o<<<<< (ab) max sync:      0.00
       1.2461     -99.95863755  1.25D-10  1.22D-10  7.54D-07 1.3D-04      1.5
     --- Orbitals canonicalized ---



          %%%%% MacroIteration   2 %%%%%


          Number of sigma calls:       21
                       o<<<<< (aa):             0.00
                       o<<<<< (bb):             0.00
                       o<<<<< (ab):             0.06
                       o<<<<< (total)           0.07
                       o<<<<< (aa) ff           0.00
                       o<<<<< (aa) gop          0.00
                       o<<<<< (aa) dot          0.00
                       o<<<<< (ab) str          0.00
                       o<<<<< (ab) gath         0.00
                       o<<<<< (ab) dotab        0.00
                       o<<<<< (ab) scat         0.00
                       o<<<<< (ab) sync         0.00
                       o<<<<< Density           0.01
                       o<<<<< Density one       0.00
                       o<<<<< Density two       0.00
                       o<<<<< Density ab        0.01
                       o<<<<< Spin adapt        0.21
                       o<<<<< Symm adapt        0.00

                       o<<<<< (ab) max sync:      0.00

           >>>| Valence CI:           -102.692745542403
           >>>| MCSCF energy:          -99.958637545137
           >>>| Gradient norm:          0.533162235D-03
     --- Warning:   59 Hessian diagonals < 0.05 ---
     --- Conjugacy reset ---

                              ----- Line search ------

        step       energy         lsg     num-lsg   num-lsh   lsrat    time
      ------- ---------------- --------- --------- --------- ------- --------
       0.0000     -99.95863755 -4.14D-08  0.00D+00  0.00D+00 0.0D+00      1.9

          Number of sigma calls:       15
                       o<<<<< (aa):             0.00
                       o<<<<< (bb):             0.00
                       o<<<<< (ab):             0.04
                       o<<<<< (total)           0.05
                       o<<<<< (aa) ff           0.00
                       o<<<<< (aa) gop          0.00
                       o<<<<< (aa) dot          0.00
                       o<<<<< (ab) str          0.00
                       o<<<<< (ab) gath         0.00
                       o<<<<< (ab) dotab        0.00
                       o<<<<< (ab) scat         0.00
                       o<<<<< (ab) sync         0.00
                       o<<<<< Density           0.01
                       o<<<<< Density one       0.00
                       o<<<<< Density two       0.00
                       o<<<<< Density ab        0.01
                       o<<<<< Spin adapt        0.13
                       o<<<<< Symm adapt        0.00

                       o<<<<< (ab) max sync:      0.00
       1.0000     -99.95863757 -9.40D-09 -9.38D-09  3.20D-08 2.3D-01      2.2

          Number of sigma calls:       14
                       o<<<<< (aa):             0.00
                       o<<<<< (bb):             0.00
                       o<<<<< (ab):             0.05
                       o<<<<< (total)           0.06
                       o<<<<< (aa) ff           0.00
                       o<<<<< (aa) gop          0.00
                       o<<<<< (aa) dot          0.00
                       o<<<<< (ab) str          0.00
                       o<<<<< (ab) gath         0.00
                       o<<<<< (ab) dotab        0.00
                       o<<<<< (ab) scat         0.00
                       o<<<<< (ab) sync         0.00
                       o<<<<< Density           0.01
                       o<<<<< Density one       0.00
                       o<<<<< Density two       0.00
                       o<<<<< Density ab        0.01
                       o<<<<< Spin adapt        0.16
                       o<<<<< Symm adapt        0.00

                       o<<<<< (ab) max sync:      0.00
       1.2932     -99.95863757 -6.70D-12 -6.43D-12  3.20D-08 1.6D-04      2.5



          %%%%% MacroIteration   3 %%%%%


          Number of sigma calls:        1
                       o<<<<< (aa):             0.00
                       o<<<<< (bb):             0.00
                       o<<<<< (ab):             0.00
                       o<<<<< (total)           0.00
                       o<<<<< (aa) ff           0.00
                       o<<<<< (aa) gop          0.00
                       o<<<<< (aa) dot          0.00
                       o<<<<< (ab) str          0.00
                       o<<<<< (ab) gath         0.00
                       o<<<<< (ab) dotab        0.00
                       o<<<<< (ab) scat         0.00
                       o<<<<< (ab) sync         0.00
                       o<<<<< Density           0.00
                       o<<<<< Density one       0.00
                       o<<<<< Density two       0.00
                       o<<<<< Density ab        0.00
                       o<<<<< Spin adapt        0.00
                       o<<<<< Symm adapt        0.00

                       o<<<<< (ab) max sync:      0.00

           >>>| Valence CI:           -102.692745569186
           >>>| MCSCF energy:          -99.958637571920
           >>>| Gradient norm:          0.135961091D-03
     --- Warning:   59 Hessian diagonals < 0.05 ---

                              ----- Line search ------

        step       energy         lsg     num-lsg   num-lsh   lsrat    time
      ------- ---------------- --------- --------- --------- ------- --------
       0.0000     -99.95863757 -3.82D-09  0.00D+00  0.00D+00 0.0D+00      2.5

          Number of sigma calls:       14
                       o<<<<< (aa):             0.00
                       o<<<<< (bb):             0.00
                       o<<<<< (ab):             0.03
                       o<<<<< (total)           0.04
                       o<<<<< (aa) ff           0.00
                       o<<<<< (aa) gop          0.00
                       o<<<<< (aa) dot          0.00
                       o<<<<< (ab) str          0.00
                       o<<<<< (ab) gath         0.00
                       o<<<<< (ab) dotab        0.00
                       o<<<<< (ab) scat         0.00
                       o<<<<< (ab) sync         0.00
                       o<<<<< Density           0.01
                       o<<<<< Density one       0.00
                       o<<<<< Density two       0.00
                       o<<<<< Density ab        0.01
                       o<<<<< Spin adapt        0.18
                       o<<<<< Symm adapt        0.00

                       o<<<<< (ab) max sync:      0.00
       1.0000     -99.95863757 -1.12D-09 -1.12D-09  2.70D-09 2.9D-01      2.8

          Number of sigma calls:       13
                       o<<<<< (aa):             0.00
                       o<<<<< (bb):             0.00
                       o<<<<< (ab):             0.05
                       o<<<<< (total)           0.05
                       o<<<<< (aa) ff           0.00
                       o<<<<< (aa) gop          0.00
                       o<<<<< (aa) dot          0.00
                       o<<<<< (ab) str          0.00
                       o<<<<< (ab) gath         0.00
                       o<<<<< (ab) dotab        0.00
                       o<<<<< (ab) scat         0.00
                       o<<<<< (ab) sync         0.00
                       o<<<<< Density           0.00
                       o<<<<< Density one       0.00
                       o<<<<< Density two       0.00
                       o<<<<< Density ab        0.00
                       o<<<<< Spin adapt        0.13
                       o<<<<< Symm adapt        0.00

                       o<<<<< (ab) max sync:      0.00
       1.4162     -99.95863757 -1.43D-13 -8.24D-13  2.70D-09 3.7D-05      3.0



          %%%%% MacroIteration   4 %%%%%


          Number of sigma calls:        1
                       o<<<<< (aa):             0.00
                       o<<<<< (bb):             0.00
                       o<<<<< (ab):             0.00
                       o<<<<< (total)           0.00
                       o<<<<< (aa) ff           0.00
                       o<<<<< (aa) gop          0.00
                       o<<<<< (aa) dot          0.00
                       o<<<<< (ab) str          0.00
                       o<<<<< (ab) gath         0.00
                       o<<<<< (ab) dotab        0.00
                       o<<<<< (ab) scat         0.00
                       o<<<<< (ab) sync         0.00
                       o<<<<< Density           0.01
                       o<<<<< Density one       0.00
                       o<<<<< Density two       0.00
                       o<<<<< Density ab        0.01
                       o<<<<< Spin adapt        0.00
                       o<<<<< Symm adapt        0.00

                       o<<<<< (ab) max sync:      0.00

           >>>| Valence CI:           -102.692745571890
           >>>| MCSCF energy:          -99.958637574624
           >>>| Gradient norm:          0.560640600D-04




     ==============================
            MCSCF Converged
     ==============================



          Canonical Eigenvalues

              1      
    1  -26.3401
    2   -1.5429
    3   -0.6630
    4   -0.6630
    5   -0.5492
    6   -0.1264
    7   -0.0056
    8   -0.0033
    9    0.3800
   10    0.7286
   11    0.7286
   12    0.8932
   13    0.9954
   14    0.9954
   15    1.5031
   16    2.2504
   17    2.2504
   18    2.2624
   19    2.2624
   20    2.5845
   21    3.4086
   22    3.4086
   23    3.4700
   24    3.4700
   25    3.5737
   26    3.8672
   27    3.8672
   28    4.1143
   29    5.0657
   30    5.0657
   31    5.0730
   32    7.3588
   33    7.3588
   34    7.3654
   35    7.3654
   36    7.3906
   37    7.3957
   38    7.3957
   39    8.4215
   40    8.8375
   41    8.8375
   42    8.8415
   43    8.8415
   44    9.6297


          Converged CI vector

   Index           Coefficient          Config. Occupation
         1         -0.89251156          1  2  3  4  5  1  2  3  4  5
         2         -0.19280443          1  2  3  4  5  1  2  3  4  6
        57         -0.19280443          1  2  3  4  6  1  2  3  4  5
        58          0.35140907          1  2  3  4  6  1  2  3  4  6
        66         -0.02031822          1  2  3  4  6  1  3  4  5  7
      1181         -0.02265122          1  2  3  4  8  1  3  4  5  6
       246         -0.02265122          1  3  4  5  6  1  2  3  4  8
       506         -0.02031822          1  3  4  5  7  1  2  3  4  6

          Number of sigma calls:        1
                       o<<<<< (aa):             0.00
                       o<<<<< (bb):             0.00
                       o<<<<< (ab):             0.00
                       o<<<<< (total)           0.00
                       o<<<<< (aa) ff           0.00
                       o<<<<< (aa) gop          0.00
                       o<<<<< (aa) dot          0.00
                       o<<<<< (ab) str          0.00
                       o<<<<< (ab) gath         0.00
                       o<<<<< (ab) dotab        0.00
                       o<<<<< (ab) scat         0.00
                       o<<<<< (ab) sync         0.00
                       o<<<<< Density           0.00
                       o<<<<< Density one       0.00
                       o<<<<< Density two       0.00
                       o<<<<< Density ab        0.00
                       o<<<<< Spin adapt        0.00
                       o<<<<< Symm adapt        0.00

                       o<<<<< (ab) max sync:      0.00



          Natural orbital occupation numbers

              1      
    1    2.0000
    2    1.9993
    3    1.9993
    4    1.9950
    5    1.7054
    6    0.2949
    7    0.0038
    8    0.0022


          Number of sigma calls:       31
                       o<<<<< (aa):             0.00
                       o<<<<< (bb):             0.01
                       o<<<<< (ab):             0.08
                       o<<<<< (total)           0.09
                       o<<<<< (aa) ff           0.00
                       o<<<<< (aa) gop          0.00
                       o<<<<< (aa) dot          0.00
                       o<<<<< (ab) str          0.00
                       o<<<<< (ab) gath         0.00
                       o<<<<< (ab) dotab        0.00
                       o<<<<< (ab) scat         0.00
                       o<<<<< (ab) sync         0.00
                       o<<<<< Density           0.01
                       o<<<<< Density one       0.00
                       o<<<<< Density two       0.00
                       o<<<<< Density ab        0.01
                       o<<<<< Spin adapt        0.26
                       o<<<<< Symm adapt        0.00

                       o<<<<< (ab) max sync:      0.00


       Final MCSCF results 
       ------------------- 

       Total MCSCF energy =    -99.958637574624
            Gradient norm =      5.6D-05

    CPU time for solution =      3.4s
   Wall time for solution =      6.6s



                        Analysis of MCSCF natural orbitals
                        ----------------------------------

 Vector    1  Occ=1.999982D+00  E=-2.634013D+01  Symmetry=a
              MO Center=  8.7D-14, -1.7D-01,  1.9D-14, r^2= 1.2D-02
   Bfn.  Coefficient  Atom+Function         Bfn.  Coefficient  Atom+Function  
  ----- ------------  ---------------      ----- ------------  ---------------
     1      0.976035  1 F  s          

 Vector    2  Occ=1.999330D+00  E=-1.542899D+00  Symmetry=a
              MO Center=  6.8D-16, -1.7D-01, -3.2D-13, r^2= 4.4D-01
   Bfn.  Coefficient  Atom+Function         Bfn.  Coefficient  Atom+Function  
  ----- ------------  ---------------      ----- ------------  ---------------
    10      0.477338  1 F  pz                 7      0.392906  1 F  pz         
    13      0.351229  1 F  pz         

 Vector    3  Occ=1.999330D+00  E=-6.629701D-01  Symmetry=a
              MO Center=  3.9D-13, -1.7D-01,  1.6D-16, r^2= 4.4D-01
   Bfn.  Coefficient  Atom+Function         Bfn.  Coefficient  Atom+Function  
  ----- ------------  ---------------      ----- ------------  ---------------
     8      0.477338  1 F  px                 5      0.392906  1 F  px         
    11      0.351229  1 F  px         

 Vector    4  Occ=1.995031D+00  E=-6.629699D-01  Symmetry=a
              MO Center= -4.8D-13, -1.9D-01,  2.8D-13, r^2= 3.4D-01
   Bfn.  Coefficient  Atom+Function         Bfn.  Coefficient  Atom+Function  
  ----- ------------  ---------------      ----- ------------  ---------------
     2      0.576730  1 F  s                  4      0.378899  1 F  s          
     3      0.171219  1 F  s          

 Vector    5  Occ=1.705429D+00  E=-5.492218D-01  Symmetry=a
              MO Center= -2.5D-14,  5.1D-01, -6.7D-15, r^2= 1.2D+00
   Bfn.  Coefficient  Atom+Function         Bfn.  Coefficient  Atom+Function  
  ----- ------------  ---------------      ----- ------------  ---------------
     9      0.353723  1 F  py                32      0.305244  2 H  s          
     6      0.286369  1 F  py                12      0.247745  1 F  py         
    33      0.194184  2 H  s          

 Vector    6  Occ=2.948842D-01  E=-1.264332D-01  Symmetry=a
              MO Center= -2.9D-15,  8.5D-01, -5.4D-15, r^2= 1.3D+00
   Bfn.  Coefficient  Atom+Function         Bfn.  Coefficient  Atom+Function  
  ----- ------------  ---------------      ----- ------------  ---------------
    32      0.458993  2 H  s                  9     -0.398485  1 F  py         
     6     -0.322613  1 F  py                33      0.247155  2 H  s          
    31      0.202816  2 H  s          

 Vector    7  Occ=3.771757D-03  E=-5.594143D-03  Symmetry=a
              MO Center= -1.5D-15, -2.1D-01,  1.3D-14, r^2= 7.1D-01
   Bfn.  Coefficient  Atom+Function         Bfn.  Coefficient  Atom+Function  
  ----- ------------  ---------------      ----- ------------  ---------------
     4      1.172546  1 F  s                  3     -0.661262  1 F  s          
     2     -0.623272  1 F  s                 23      0.349525  1 F  d  2       
    21      0.201799  1 F  d  0              18      0.166809  1 F  d  2       

 Vector    8  Occ=2.242325D-03  E=-3.266580D-03  Symmetry=a
              MO Center=  2.6D-15, -3.4D-01,  1.1D-15, r^2= 5.3D-01
   Bfn.  Coefficient  Atom+Function         Bfn.  Coefficient  Atom+Function  
  ----- ------------  ---------------      ----- ------------  ---------------
     4     -0.551351  1 F  s                  3      0.541184  1 F  s          
    23      0.510170  1 F  d  2              21      0.294525  1 F  d  0       
    18      0.284791  1 F  d  2               6     -0.240314  1 F  py         
    12      0.233845  1 F  py                 1     -0.180200  1 F  s          
    16      0.164407  1 F  d  0       

 Vector    9  Occ=0.000000D+00  E= 3.800277D-01  Symmetry=a
              MO Center=  1.1D-14,  1.8D+00,  1.1D-14, r^2= 3.1D+00
   Bfn.  Coefficient  Atom+Function         Bfn.  Coefficient  Atom+Function  
  ----- ------------  ---------------      ----- ------------  ---------------
    33      1.725915  2 H  s                 32     -1.242146  2 H  s          
     4     -0.494373  1 F  s                 12     -0.256157  1 F  py         
     2      0.154231  1 F  s          

 Vector   10  Occ=0.000000D+00  E= 7.285515D-01  Symmetry=a
              MO Center=  1.4D-14,  1.3D+00,  1.6D-18, r^2= 1.3D+00
   Bfn.  Coefficient  Atom+Function         Bfn.  Coefficient  Atom+Function  
  ----- ------------  ---------------      ----- ------------  ---------------
    37      0.941941  2 H  px                11      0.350566  1 F  px         
     8     -0.277388  1 F  px         

 Vector   11  Occ=0.000000D+00  E= 7.285515D-01  Symmetry=a
              MO Center=  6.9D-16,  1.3D+00,  8.0D-15, r^2= 1.3D+00
   Bfn.  Coefficient  Atom+Function         Bfn.  Coefficient  Atom+Function  
  ----- ------------  ---------------      ----- ------------  ---------------
    39      0.941941  2 H  pz                13      0.350566  1 F  pz         
    10     -0.277388  1 F  pz         

 Vector   12  Occ=0.000000D+00  E= 8.931892D-01  Symmetry=a
              MO Center=  5.3D-16,  1.2D+00, -3.1D-15, r^2= 1.7D+00
   Bfn.  Coefficient  Atom+Function         Bfn.  Coefficient  Atom+Function  
  ----- ------------  ---------------      ----- ------------  ---------------
    38      0.820026  2 H  py                12     -0.494291  1 F  py         
    32      0.442793  2 H  s                  9      0.403350  1 F  py         
    33     -0.309105  2 H  s                  4      0.236577  1 F  s          
     6      0.163680  1 F  py         

 Vector   13  Occ=0.000000D+00  E= 9.954199D-01  Symmetry=a
              MO Center= -1.4D-15,  4.2D-02, -1.6D-16, r^2= 1.9D+00
   Bfn.  Coefficient  Atom+Function         Bfn.  Coefficient  Atom+Function  
  ----- ------------  ---------------      ----- ------------  ---------------
    11      1.159528  1 F  px                 8     -0.679576  1 F  px         
    37     -0.507473  2 H  px                 5     -0.229600  1 F  px         

 Vector   14  Occ=0.000000D+00  E= 9.954199D-01  Symmetry=a
              MO Center=  1.1D-16,  4.2D-02,  2.5D-15, r^2= 1.9D+00
   Bfn.  Coefficient  Atom+Function         Bfn.  Coefficient  Atom+Function  
  ----- ------------  ---------------      ----- ------------  ---------------
    13      1.159528  1 F  pz                10     -0.679576  1 F  pz         
    39     -0.507473  2 H  pz                 7     -0.229600  1 F  pz         

 Vector   15  Occ=0.000000D+00  E= 1.503137D+00  Symmetry=a
              MO Center=  4.4D-15,  4.8D-01,  7.2D-16, r^2= 2.5D+00
   Bfn.  Coefficient  Atom+Function         Bfn.  Coefficient  Atom+Function  
  ----- ------------  ---------------      ----- ------------  ---------------
    12      1.502197  1 F  py                38      1.128118  2 H  py         
     4      1.013907  1 F  s                  9     -0.605201  1 F  py         
    33     -0.493525  2 H  s                  2     -0.481786  1 F  s          
    23     -0.275319  1 F  d  2              31     -0.215459  2 H  s          
     1     -0.180380  1 F  s                 21     -0.158937  1 F  d  0       

 Vector   16  Occ=0.000000D+00  E= 2.250433D+00  Symmetry=a
              MO Center=  1.5D-15, -8.1D-02,  4.0D-16, r^2= 7.4D-01
   Bfn.  Coefficient  Atom+Function         Bfn.  Coefficient  Atom+Function  
  ----- ------------  ---------------      ----- ------------  ---------------
    20      0.987408  1 F  d -1       

 Vector   17  Occ=0.000000D+00  E= 2.250433D+00  Symmetry=a
              MO Center=  2.5D-16, -8.1D-02,  8.4D-16, r^2= 7.4D-01
   Bfn.  Coefficient  Atom+Function         Bfn.  Coefficient  Atom+Function  
  ----- ------------  ---------------      ----- ------------  ---------------
    19      0.987408  1 F  d -2       

 Vector   18  Occ=0.000000D+00  E= 2.262424D+00  Symmetry=a
              MO Center= -6.1D-16, -1.7D-01, -5.7D-16, r^2= 5.8D-01
   Bfn.  Coefficient  Atom+Function         Bfn.  Coefficient  Atom+Function  
  ----- ------------  ---------------      ----- ------------  ---------------
    21      0.870275  1 F  d  0              23     -0.502426  1 F  d  2       


 Wrote Lagrangian and 1- and 2-particle density matrices to ./HF.mcpdm


     Multipole analysis of the density
     ---------------------------------

     L   x y z        total        nuclear
     -   - - -        -----        -------
     0   0 0 0     -0.000000     10.000000

     1   1 0 0      0.000000      0.000000
     1   0 1 0      0.534714      0.000000
     1   0 0 1      0.000000      0.000000

     2   2 0 0     -4.515190      0.000000
     2   1 1 0      0.000000      0.000000
     2   1 0 1      0.000000      0.000000
     2   0 2 0     -2.085770      9.752056
     2   0 1 1      0.000000      0.000000
     2   0 0 2     -4.515191      0.000000


  Mulliken analysis of the total density
  --------------------------------------

    Atom       Charge   Shell Charges
 -----------   ------   -------------------------------------------------------
    1 F    9     9.15   1.95  1.09  0.28  0.67  1.50  2.30  1.35  0.00  0.00  0.00
    2 H    1     0.85   0.15  0.45  0.24  0.00  0.01  0.00

    Mulliken analysis of the active space density
    ---------------------------------------------

    Atom       Charge   Shell Charges
 -----------   ------   -------------------------------------------------------
    1 F    9     9.15   1.95  1.09  0.28  0.67  1.50  2.30  1.35  0.00  0.00  0.00
    2 H    1     0.85   0.15  0.45  0.24  0.00  0.01  0.00

 Parallel integral file used       3 records with       0 large values


 Task  times  cpu:        3.4s     wall:        6.7s


                                NWChem Input Module
                                -------------------


                                 NWChem SCF Module
                                 -----------------


                                        HF



  ao basis        = "ao basis"
  functions       =    44
  atoms           =     2
  closed shells   =     5
  open shells     =     0
  charge          =   0.00
  wavefunction    = RHF 
  input vectors   = ./HF.mos
  output vectors  = ./HF-trash.mos
  use symmetry    = F
  symmetry adapt  = F


 Summary of "ao basis" -> "ao basis" (spherical)
 ------------------------------------------------------------------------------
       Tag                 Description            Shells   Functions and Types
 ---------------- ------------------------------  ------  ---------------------
 F                          cc-pVTZ                 10       30   4s3p2d1f
 H                          cc-pVTZ                  6       14   3s2p1d



 Forming initial guess at       6.7s


 Loading old vectors from job with title :

HF


 Starting SCF solution at       6.7s



 ----------------------------------------------
         Quadratically convergent ROHF

 Convergence threshold     :          1.000E-04
 Maximum no. of iterations :           30
 Final Fock-matrix accuracy:          1.000E-07
 ----------------------------------------------


 Integral file          = ./HF.aoints.0
 Record size in doubles =  65536        No. of integs per rec  =  43688
 Max. records in memory =     18        Max. records in file   = 250341
 No. of bits per label  =      8        No. of bits per value  =     64


 #quartets = 9.312D+03 #integrals = 1.248D+05 #direct =  0.0% #cached =100.0%



       Final RHF  results 
       ------------------ 

         Total SCF energy =    -99.831494431025
      One-electron energy =   -145.782892514493
      Two-electron energy =     43.217290086203
 Nuclear repulsion energy =      2.734107997266

        Time for solution =      0.0s


             Final eigenvalues
             -----------------

              1      
    1  -26.3401
    2   -1.5429
    3   -0.6630
    4   -0.6630
    5   -0.5492
    6   -0.1264
    7   -0.0056
    8   -0.0033
    9    0.3800
   10    0.7286
   11    0.7286
   12    0.8932
   13    0.9954
   14    0.9954
   15    1.5031

                       ROHF Final Molecular Orbital Analysis
                       -------------------------------------

 Vector    2  Occ=2.000000D+00  E=-1.542899D+00
              MO Center=  6.8D-16, -1.7D-01, -3.2D-13, r^2= 4.4D-01
   Bfn.  Coefficient  Atom+Function         Bfn.  Coefficient  Atom+Function  
  ----- ------------  ---------------      ----- ------------  ---------------
    10      0.477338  1 F  pz                 7      0.392906  1 F  pz         
    13      0.351229  1 F  pz         

 Vector    3  Occ=2.000000D+00  E=-6.629701D-01
              MO Center=  3.9D-13, -1.7D-01,  1.6D-16, r^2= 4.4D-01
   Bfn.  Coefficient  Atom+Function         Bfn.  Coefficient  Atom+Function  
  ----- ------------  ---------------      ----- ------------  ---------------
     8      0.477338  1 F  px                 5      0.392906  1 F  px         
    11      0.351229  1 F  px         

 Vector    4  Occ=2.000000D+00  E=-6.629699D-01
              MO Center= -4.8D-13, -1.9D-01,  2.8D-13, r^2= 3.4D-01
   Bfn.  Coefficient  Atom+Function         Bfn.  Coefficient  Atom+Function  
  ----- ------------  ---------------      ----- ------------  ---------------
     2      0.576730  1 F  s                  4      0.378899  1 F  s          
     3      0.171219  1 F  s          

 Vector    5  Occ=2.000000D+00  E=-5.492218D-01
              MO Center= -2.5D-14,  5.1D-01, -6.7D-15, r^2= 1.2D+00
   Bfn.  Coefficient  Atom+Function         Bfn.  Coefficient  Atom+Function  
  ----- ------------  ---------------      ----- ------------  ---------------
     9      0.353723  1 F  py                32      0.305244  2 H  s          
     6      0.286369  1 F  py                12      0.247745  1 F  py         
    33      0.194184  2 H  s          

 Vector    6  Occ=0.000000D+00  E=-1.264332D-01
              MO Center= -2.9D-15,  8.5D-01, -5.4D-15, r^2= 1.3D+00
   Bfn.  Coefficient  Atom+Function         Bfn.  Coefficient  Atom+Function  
  ----- ------------  ---------------      ----- ------------  ---------------
    32      0.458993  2 H  s                  9     -0.398485  1 F  py         
     6     -0.322613  1 F  py                33      0.247155  2 H  s          
    31      0.202816  2 H  s          

 Vector    7  Occ=0.000000D+00  E=-5.594143D-03
              MO Center= -1.5D-15, -2.1D-01,  1.3D-14, r^2= 7.1D-01
   Bfn.  Coefficient  Atom+Function         Bfn.  Coefficient  Atom+Function  
  ----- ------------  ---------------      ----- ------------  ---------------
     4      1.172546  1 F  s                  3     -0.661262  1 F  s          
     2     -0.623272  1 F  s                 23      0.349525  1 F  d  2       
    21      0.201799  1 F  d  0              18      0.166809  1 F  d  2       

 Vector    8  Occ=0.000000D+00  E=-3.266580D-03
              MO Center=  2.6D-15, -3.4D-01,  1.1D-15, r^2= 5.3D-01
   Bfn.  Coefficient  Atom+Function         Bfn.  Coefficient  Atom+Function  
  ----- ------------  ---------------      ----- ------------  ---------------
     4     -0.551351  1 F  s                  3      0.541184  1 F  s          
    23      0.510170  1 F  d  2              21      0.294525  1 F  d  0       
    18      0.284791  1 F  d  2               6     -0.240314  1 F  py         
    12      0.233845  1 F  py                 1     -0.180200  1 F  s          
    16      0.164407  1 F  d  0       

 Vector    9  Occ=0.000000D+00  E= 3.800277D-01
              MO Center=  1.1D-14,  1.8D+00,  1.1D-14, r^2= 3.1D+00
   Bfn.  Coefficient  Atom+Function         Bfn.  Coefficient  Atom+Function  
  ----- ------------  ---------------      ----- ------------  ---------------
    33      1.725915  2 H  s                 32     -1.242146  2 H  s          
     4     -0.494373  1 F  s                 12     -0.256157  1 F  py         
     2      0.154231  1 F  s          

 Vector   10  Occ=0.000000D+00  E= 7.285515D-01
              MO Center=  1.4D-14,  1.3D+00,  1.6D-18, r^2= 1.3D+00
   Bfn.  Coefficient  Atom+Function         Bfn.  Coefficient  Atom+Function  
  ----- ------------  ---------------      ----- ------------  ---------------
    37      0.941941  2 H  px                11      0.350566  1 F  px         
     8     -0.277388  1 F  px         

 Vector   11  Occ=0.000000D+00  E= 7.285515D-01
              MO Center=  6.9D-16,  1.3D+00,  8.0D-15, r^2= 1.3D+00
   Bfn.  Coefficient  Atom+Function         Bfn.  Coefficient  Atom+Function  
  ----- ------------  ---------------      ----- ------------  ---------------
    39      0.941941  2 H  pz                13      0.350566  1 F  pz         
    10     -0.277388  1 F  pz         

 Vector   12  Occ=0.000000D+00  E= 8.931892D-01
              MO Center=  5.3D-16,  1.2D+00, -3.1D-15, r^2= 1.7D+00
   Bfn.  Coefficient  Atom+Function         Bfn.  Coefficient  Atom+Function  
  ----- ------------  ---------------      ----- ------------  ---------------
    38      0.820026  2 H  py                12     -0.494291  1 F  py         
    32      0.442793  2 H  s                  9      0.403350  1 F  py         
    33     -0.309105  2 H  s                  4      0.236577  1 F  s          
     6      0.163680  1 F  py         

 Vector   13  Occ=0.000000D+00  E= 9.954199D-01
              MO Center= -1.4D-15,  4.2D-02, -1.6D-16, r^2= 1.9D+00
   Bfn.  Coefficient  Atom+Function         Bfn.  Coefficient  Atom+Function  
  ----- ------------  ---------------      ----- ------------  ---------------
    11      1.159528  1 F  px                 8     -0.679576  1 F  px         
    37     -0.507473  2 H  px                 5     -0.229600  1 F  px         

 Vector   14  Occ=0.000000D+00  E= 9.954199D-01
              MO Center=  1.1D-16,  4.2D-02,  2.5D-15, r^2= 1.9D+00
   Bfn.  Coefficient  Atom+Function         Bfn.  Coefficient  Atom+Function  
  ----- ------------  ---------------      ----- ------------  ---------------
    13      1.159528  1 F  pz                10     -0.679576  1 F  pz         
    39     -0.507473  2 H  pz                 7     -0.229600  1 F  pz         

 Vector   15  Occ=0.000000D+00  E= 1.503137D+00
              MO Center=  4.4D-15,  4.8D-01,  7.2D-16, r^2= 2.5D+00
   Bfn.  Coefficient  Atom+Function         Bfn.  Coefficient  Atom+Function  
  ----- ------------  ---------------      ----- ------------  ---------------
    12      1.502197  1 F  py                38      1.128118  2 H  py         
     4      1.013907  1 F  s                  9     -0.605201  1 F  py         
    33     -0.493525  2 H  s                  2     -0.481786  1 F  s          
    23     -0.275319  1 F  d  2              31     -0.215459  2 H  s          
     1     -0.180380  1 F  s                 21     -0.158937  1 F  d  0       


 center of mass
 --------------
 x =   0.00000000 y =  -0.16335122 z =   0.00000000

 moments of inertia (a.u.)
 ------------------
          10.370285051383           0.000000000000           0.000000000000
           0.000000000000           0.000000000000           0.000000000000
           0.000000000000           0.000000000000          10.370285051383

  Mulliken analysis of the total density
  --------------------------------------

    Atom       Charge   Shell Charges
 -----------   ------   -------------------------------------------------------
    1 F    9     9.20   1.95  1.09  0.28  0.67  1.49  2.31  1.41  0.00  0.00  0.00
    2 H    1     0.80   0.13  0.42  0.23  0.00  0.01  0.00

       Multipole analysis of the density wrt the origin
       ------------------------------------------------

     L   x y z        total         open         nuclear
     -   - - -        -----         ----         -------
     0   0 0 0     -0.000000      0.000000     10.000000

     1   1 0 0      0.000000      0.000000      0.000000
     1   0 1 0      0.720200      0.000000      0.000000
     1   0 0 1      0.000000      0.000000      0.000000

     2   2 0 0     -4.513756      0.000000      0.000000
     2   1 1 0      0.000000      0.000000      0.000000
     2   1 0 1      0.000000      0.000000      0.000000
     2   0 2 0     -1.502325      0.000000      9.752056
     2   0 1 1      0.000000      0.000000      0.000000
     2   0 0 2     -4.513757      0.000000      0.000000


 Parallel integral file used       3 records with       0 large values

 ------------------------------------
     Number of active orbitals      8
     Number of active alpha electrons      5
     Number of active beta electrons       5
 ------------------------------------
                   NWChem Extensible Many-Electron Theory Module
                   ---------------------------------------------

              ======================================================
                   This portion of the program was automatically
                  generated by a Tensor Contraction Engine (TCE).
                  The development of this portion of the program
                 and TCE was supported by US Department of Energy,
                Office of Science, Office of Basic Energy Science.
                      TCE is a product of Battelle and PNNL.
              Please cite: S.Hirata, J.Phys.Chem.A 107, 9887 (2003).
              ======================================================

                                        HF


            General Information
            -------------------
      Number of processors :     1
         Wavefunction type : Restricted Hartree-Fock
          No. of electrons :    10
           Alpha electrons :     5
            Beta electrons :     5
           No. of orbitals :    88
            Alpha orbitals :    44
             Beta orbitals :    44
        Alpha frozen cores :     0
         Beta frozen cores :     0
     Alpha frozen virtuals :    36
      Beta frozen virtuals :    36
         Spin multiplicity : singlet 
    Number of AO functions :    44
       Number of AO shells :    16
        Use of symmetry is : off
      Symmetry adaption is : off
         Schwarz screening : 0.10D-09

          Correlation Information
          -----------------------
          Calculation type : Coupled-cluster singles & doubles                           
   Perturbative correction : none                                                        
            Max iterations :      500
        Residual threshold : 0.10D-06
     T(0) DIIS level shift : 0.00D+00
     L(0) DIIS level shift : 0.00D+00
     T(1) DIIS level shift : 0.00D+00
     L(1) DIIS level shift : 0.00D+00
     T(R) DIIS level shift : 0.00D+00
     T(I) DIIS level shift : 0.00D+00
   CC-T/L Amplitude update :  5-th order DIIS
                I/O scheme : Global Array Library
        L-threshold :  0.10D-06
        EOM-threshold :  0.10D-06
 no EOMCCSD initial starts read in
 TCE RESTART OPTIONS
 READ_INT:   F
 WRITE_INT:  F
 READ_TA:    F
 WRITE_TA:   F
 READ_XA:    F
 WRITE_XA:   F
 READ_IN3:   F
 WRITE_IN3:  F
 SLICE:      F
 D4D5:       F
 quantumc:   T
 qrotation:  F
 pwtce:      F
 qducc:      F
 nacto:                         0
 nrotv:                         0
 nrot:                          0

            Memory Information
            ------------------
          Available GA space size is    1610610800 doubles
          Available MA space size is    1610610316 doubles

 Maximum block size supplied by input
 Maximum block size         1 doubles

 tile_dim =      1

 Block   Spin    Irrep     Size     Offset   Alpha
 -------------------------------------------------
   1    alpha     a      1 doubles       0       1
   2    alpha     a      1 doubles       1       2
   3    alpha     a      1 doubles       2       3
   4    alpha     a      1 doubles       3       4
   5    alpha     a      1 doubles       4       5
   6    beta      a      1 doubles       5       1
   7    beta      a      1 doubles       6       2
   8    beta      a      1 doubles       7       3
   9    beta      a      1 doubles       8       4
  10    beta      a      1 doubles       9       5
  11    alpha     a      1 doubles      10      11
  12    alpha     a      1 doubles      11      12
  13    alpha     a      1 doubles      12      13
  14    beta      a      1 doubles      13      11
  15    beta      a      1 doubles      14      12
  16    beta      a      1 doubles      15      13

 Global array virtual files algorithm will be used

 Parallel file system coherency ......... OK

 Integral file          = ./HF.aoints.0
 Record size in doubles =  65536        No. of integs per rec  =  43688
 Max. records in memory =     18        Max. records in file   = 250341
 No. of bits per label  =      8        No. of bits per value  =     64


 #quartets = 9.316D+03 #integrals = 1.251D+05 #direct =  0.0% #cached =100.0%


 Fock matrix recomputed
 1-e file size   =               64
 1-e file name   = ./HF.f1
 Cpu & wall time / sec            0.1            0.1
 4-electron integrals stored in orbital form

 v2    file size   =              666
 4-index algorithm nr.  13 is used
 imaxsize =       30
 imaxsize ichop =        0
 begin_one_electron_integrals
    1    1       -40.7301209114
    4    1         0.5410279510
    5    1        -0.0337358820
    6    1        -0.0668919896
    7    1        -0.6433901238
    8    1         0.4569647385
    2    2        -8.3336768504
    3    3        -8.3336773524
    1    4         0.5410279510
    4    4        -9.2179614418
    5    4         0.1089458992
    6    4         0.2680199114
    7    4         1.8268715280
    8    4        -1.1237308685
    1    5        -0.0337358820
    4    5         0.1089458992
    5    5        -6.2760097012
    6    5         2.7410257317
    7    5        -0.2647207419
    8    5         0.7271034714
    1    6        -0.0668919896
    4    6         0.2680199114
    5    6         2.7410257317
    6    6        -5.7317893027
    7    6        -0.0550711037
    8    6        -0.3078451115
    1    7        -0.6433901238
    4    7         1.8268715280
    5    7        -0.2647207419
    6    7        -0.0550711037
    7    7        -5.4150951915
    8    7         0.4476769755
    1    8         0.4569647385
    4    8        -1.1237308685
    5    8         0.7271034714
    6    8        -0.3078451115
    7    8         0.4476769755
    8    8        -5.1146418597
 end_one_electron_integrals
 begin_two_electron_integrals
    1    1    1    1        5.3713278969
    2    1    2    1        0.0402087837
    3    1    3    1        0.0402087923
    4    1    1    1       -0.5169537514
    4    1    4    1        0.0826441988
    4    1    2    2       -0.0140603737
    4    1    3    3       -0.0140603761
    5    1    1    1        0.0198384958
    5    1    4    1       -0.0038400497
    5    1    5    1        0.0217985544
    5    1    2    2        0.0008294041
    5    1    3    3        0.0008294040
    5    1    4    4       -0.0004224873
    6    1    1    1        0.0492830143
    6    1    4    1       -0.0069836733
    6    1    5    1       -0.0233602119
    6    1    6    1        0.0265409597
    6    1    2    2        0.0014764017
    6    1    3    3        0.0014764011
    6    1    4    4        0.0038261571
    6    1    5    4       -0.0246519201
    6    1    5    5       -0.0002002398
    7    1    1    1        0.5082777316
    7    1    4    1       -0.0833343886
    7    1    5    1        0.0073082482
    7    1    6    1        0.0032490879
    7    1    7    1        0.0855391856
    7    1    2    2        0.0149327811
    7    1    3    3        0.0149327586
    7    1    4    4        0.0204032640
    7    1    5    4        0.0027901082
    7    1    6    4       -0.0054387914
    7    1    5    5        0.0048057225
    7    1    6    5       -0.0051181669
    7    1    6    6        0.0067221332
    8    1    1    1       -0.3584244625
    8    1    4    1        0.0599957821
    8    1    5    1       -0.0153360405
    8    1    6    1        0.0086548977
    8    1    7    1       -0.0619155771
    8    1    8    1        0.0530307894
    8    1    2    2       -0.0051799760
    8    1    3    3       -0.0051795088
    8    1    4    4       -0.0136234598
    8    1    5    4       -0.0112242611
    8    1    6    4        0.0123890580
    8    1    7    4        0.0165884163
    8    1    5    5       -0.0089633506
    8    1    6    5        0.0082804898
    8    1    7    5        0.0093151729
    8    1    6    6       -0.0118430794
    8    1    7    6       -0.0119009835
    8    1    7    7       -0.0170785251
    2    2    1    1        1.2416907915
    2    2    2    2        0.9067610377
    3    2    3    2        0.0447310805
    4    2    2    1        0.0408994879
    4    2    3    1        0.0000000015
    4    2    4    2        0.1767670472
    5    2    2    1       -0.0010937736
    5    2    3    1       -0.0000000002
    5    2    4    2       -0.0034204782
    5    2    5    2        0.0268483375
    5    2    4    3       -0.0000000007
    6    2    2    1       -0.0033196417
    6    2    4    2       -0.0109184904
    6    2    5    2       -0.0226568176
    6    2    6    2        0.0222280038
    6    2    4    3        0.0000000006
    7    2    2    1       -0.0118473408
    7    2    3    1        0.0000000020
    7    2    4    2        0.0123475766
    7    2    5    2        0.0017563394
    7    2    6    2        0.0002512750
    7    2    7    2        0.0443609353
    7    2    4    3        0.0000000127
    7    2    5    3        0.0000000002
    7    2    6    3       -0.0000000005
    8    2    2    1        0.0270650962
    8    2    3    1       -0.0000000002
    8    2    4    2        0.0780845795
    8    2    5    2       -0.0044963517
    8    2    6    2       -0.0041004653
    8    2    7    2       -0.0049174032
    8    2    8    2        0.0600877324
    8    2    4    3       -0.0000000059
    8    2    5    3        0.0000000008
    8    2    6    3       -0.0000000007
    8    2    7    3       -0.0000000059
    3    3    1    1        1.2416909067
    3    3    2    2        0.8172989300
    3    3    3    3        0.9067611443
    4    3    2    1       -0.0000000015
    4    3    3    1        0.0408994955
    4    3    4    3        0.1767670620
    5    3    2    1        0.0000000002
    5    3    3    1       -0.0010937741
    5    3    4    2        0.0000000007
    5    3    4    3       -0.0034204788
    5    3    5    3        0.0268483369
    6    3    3    1       -0.0033196468
    6    3    4    2       -0.0000000006
    6    3    4    3       -0.0109185141
    6    3    5    3       -0.0226568174
    6    3    6    3        0.0222280068
    7    3    2    1       -0.0000000020
    7    3    3    1       -0.0118474374
    7    3    4    2       -0.0000000128
    7    3    5    2       -0.0000000002
    7    3    6    2        0.0000000005
    7    3    4    3        0.0123471840
    7    3    5    3        0.0017563651
    7    3    6    3        0.0002512808
    7    3    7    3        0.0443608690
    8    3    2    1        0.0000000002
    8    3    3    1        0.0270669279
    8    3    4    2        0.0000000059
    8    3    5    2       -0.0000000008
    8    3    6    2        0.0000000007
    8    3    7    2        0.0000000059
    8    3    4    3        0.0780924434
    8    3    5    3       -0.0044965098
    8    3    6    3       -0.0041009707
    8    3    7    3       -0.0049167194
    8    3    8    3        0.0600951311
    4    4    1    1        1.2836329312
    4    4    4    1       -0.0206976037
    4    4    2    2        0.8729665951
    4    4    3    3        0.8729666461
    4    4    4    4        0.9052855880
    5    4    1    1       -0.0380468951
    5    4    4    1        0.0002833481
    5    4    5    1        0.0227033230
    5    4    2    2       -0.0177365465
    5    4    3    3       -0.0177365484
    5    4    4    4       -0.0253054689
    5    4    5    4        0.1070020668
    6    4    1    1       -0.0526145947
    6    4    4    1        0.0023822167
    6    4    5    1       -0.0218912899
    6    4    6    1        0.0233425649
    6    4    2    2       -0.0275544316
    6    4    3    3       -0.0275544441
    6    4    4    4       -0.0212053093
    6    4    5    4       -0.0902275186
    6    4    6    4        0.0831404924
    6    4    5    5       -0.0215682250
    7    4    1    1       -0.4767463480
    7    4    4    1        0.0216064098
    7    4    5    1        0.0012617195
    7    4    6    1       -0.0045870294
    7    4    7    1       -0.0187732520
    7    4    2    2       -0.1459974107
    7    4    3    3       -0.1459976047
    7    4    4    4       -0.1717284503
    7    4    5    4        0.0109041304
    7    4    6    4        0.0035405751
    7    4    7    4        0.1144394712
    7    4    5    5       -0.1187206579
    7    4    6    5        0.1048020529
    7    4    6    6       -0.1155469255
    8    4    1    1        0.3109623082
    8    4    4    1       -0.0156248713
    8    4    5    1       -0.0040694779
    8    4    6    1        0.0065444638
    8    4    7    1        0.0174880055
    8    4    8    1       -0.0034089265
    8    4    2    2        0.1262730790
    8    4    3    3        0.1262766207
    8    4    4    4        0.1032149684
    8    4    5    4       -0.0100529686
    8    4    6    4       -0.0032788816
    8    4    7    4       -0.0231689663
    8    4    8    4        0.0940934566
    8    4    5    5        0.0209657332
    8    4    6    5       -0.0271187198
    8    4    7    5        0.0158133452
    8    4    6    6        0.0265488458
    8    4    7    6       -0.0112925875
    8    4    7    7        0.0614643921
    5    5    1    1        0.8402166037
    5    5    4    1       -0.0076648275
    5    5    5    1        0.0014239121
    5    5    2    2        0.6012858627
    5    5    3    3        0.6012858876
    5    5    4    4        0.6361387078
    5    5    5    4        0.0125200782
    5    5    5    5        0.5781074902
    6    5    1    1       -0.5139992278
    6    5    4    1        0.0082104804
    6    5    5    1        0.0001526559
    6    5    6    1       -0.0017639081
    6    5    2    2       -0.2770969157
    6    5    3    3       -0.2770969377
    6    5    4    4       -0.3035826607
    6    5    5    4        0.0293324646
    6    5    6    4        0.0052517078
    6    5    5    5       -0.1164503886
    6    5    6    5        0.2502284632
    7    5    1    1        0.0621330315
    7    5    4    1       -0.0016000946
    7    5    5    1       -0.0207476604
    7    5    6    1        0.0227211874
    7    5    7    1       -0.0016827002
    7    5    2    2        0.0229939577
    7    5    3    3        0.0229939838
    7    5    4    4        0.0280710129
    7    5    5    4       -0.0619644455
    7    5    6    4        0.0573335760
    7    5    7    4       -0.0159623874
    7    5    5    5        0.0113397029
    7    5    6    5       -0.0157030921
    7    5    7    5        0.0589190401
    7    5    6    6        0.0016624444
    8    5    1    1       -0.1639329272
    8    5    4    1        0.0055145719
    8    5    5    1       -0.0084958734
    8    5    6    1        0.0083754094
    8    5    7    1       -0.0053849875
    8    5    8    1        0.0084916510
    8    5    2    2       -0.0627114519
    8    5    3    3       -0.0627115823
    8    5    4    4       -0.0617693286
    8    5    5    4       -0.0661113175
    8    5    6    4        0.0575571690
    8    5    7    4        0.0302283058
    8    5    8    4       -0.0196671810
    8    5    5    5       -0.0603801017
    8    5    6    5        0.0187998001
    8    5    7    5        0.0296175743
    8    5    8    5        0.0804407612
    8    5    6    6       -0.0590860308
    8    5    7    6       -0.0381222091
    8    5    7    7       -0.0461900550
    6    6    1    1        0.8140431383
    6    6    4    1       -0.0094144874
    6    6    5    1        0.0048597697
    6    6    6    1       -0.0037171601
    6    6    2    2        0.5558642093
    6    6    3    3        0.5558642346
    6    6    4    4        0.5851402401
    6    6    5    4        0.0227824295
    6    6    6    4       -0.0290285014
    6    6    5    5        0.5673718833
    6    6    6    5       -0.0608842148
    6    6    6    6        0.5872747263
    7    6    1    1        0.0000389647
    7    6    4    1       -0.0011104996
    7    6    5    1        0.0219339678
    7    6    6    1       -0.0236163235
    7    6    7    1        0.0043631743
    7    6    2    2        0.0037469516
    7    6    3    3        0.0037469456
    7    6    4    4       -0.0002067483
    7    6    5    4        0.0671864184
    7    6    6    4       -0.0627257299
    7    6    7    4        0.0059303951
    7    6    5    5        0.0042075223
    7    6    6    5       -0.0032251618
    7    6    7    5       -0.0569598933
    7    6    6    6        0.0071563337
    7    6    7    6        0.0600822764
    8    6    1    1        0.0963571355
    8    6    4    1       -0.0038365261
    8    6    5    1        0.0073047791
    8    6    6    1       -0.0073165022
    8    6    7    1        0.0032499496
    8    6    8    1       -0.0072581862
    8    6    2    2        0.0197287168
    8    6    3    3        0.0197284667
    8    6    4    4        0.0186976417
    8    6    5    4        0.0504933123
    8    6    6    4       -0.0444736749
    8    6    7    4       -0.0210269409
    8    6    8    4        0.0105095425
    8    6    5    5        0.0301505060
    8    6    6    5       -0.0017203216
    8    6    7    5       -0.0276164461
    8    6    8    5       -0.0575784364
    8    6    6    6        0.0388977698
    8    6    7    6        0.0307625408
    8    6    8    6        0.0472427988
    8    6    7    7        0.0147759681
    7    7    1    1        1.1053910368
    7    7    4    1       -0.0231459851
    7    7    5    1       -0.0039000067
    7    7    6    1        0.0078884441
    7    7    7    1        0.0194929290
    7    7    2    2        0.7310829423
    7    7    3    3        0.7310829400
    7    7    4    4        0.7610809999
    7    7    5    4       -0.0285435282
    7    7    6    4       -0.0063415772
    7    7    7    4       -0.1329813942
    7    7    5    5        0.5631128859
    7    7    6    5       -0.2492751197
    7    7    7    5        0.0307780603
    7    7    6    6        0.5190869885
    7    7    7    6       -0.0076055609
    7    7    7    7        0.6903368574
    8    7    1    1       -0.1134842533
    8    7    4    1        0.0161440054
    8    7    5    1        0.0077716287
    8    7    6    1       -0.0105422334
    8    7    7    1       -0.0160544198
    8    7    8    1        0.0038611266
    8    7    2    2        0.0127490469
    8    7    3    3        0.0127495534
    8    7    4    4        0.0265370243
    8    7    5    4        0.0273294797
    8    7    6    4       -0.0237390346
    8    7    7    4       -0.0058484004
    8    7    8    4       -0.0281412543
    8    7    5    5        0.0341569574
    8    7    6    5       -0.0173698017
    8    7    7    5       -0.0168064342
    8    7    8    5       -0.0169162389
    8    7    6    6        0.0311450628
    8    7    7    6        0.0188070228
    8    7    8    6        0.0121543848
    8    7    7    7        0.0253718986
    8    7    8    7        0.0375209689
    8    8    1    1        1.1296449302
    8    8    4    1       -0.0161707707
    8    8    5    1       -0.0012756088
    8    8    6    1        0.0040379222
    8    8    7    1        0.0155275366
    8    8    8    1       -0.0097659630
    8    8    2    2        0.7795212679
    8    8    3    3        0.7795254376
    8    8    4    4        0.8200706390
    8    8    5    4       -0.0394730789
    8    8    6    4       -0.0013215722
    8    8    7    4       -0.1556425393
    8    8    8    4        0.0487480361
    8    8    5    5        0.6041471933
    8    8    6    5       -0.2767969696
    8    8    7    5        0.0232188948
    8    8    8    5       -0.0292851109
    8    8    6    6        0.5482494776
    8    8    7    6       -0.0012243239
    8    8    8    6       -0.0038429462
    8    8    7    7        0.6975761405
    8    8    8    7        0.0267544335
    8    8    8    8        0.8118879021
 end_two_electron_integrals
 enrep_tce =    2.7341079972658906     
  EHF(A)             =       -99.83149443
  EHF(total)         =       -99.83149443
  Shift (HFtot-HFA)  =         0.00000000
 Cpu & wall time / sec            0.4            0.4
 T1-number-of-tasks                   15

 t1 file size   =               15
 t1 file name   = ./HF.t1
 t1 file handle =       -998
 T2-number-of-boxes                  315

 t2 file size   =              315
 t2 file name   = ./HF.t2
 t2 file handle =       -996
CCSD iterations
 ---------------------------------------------------------
 Iter          Residuum       Correlation     Cpu    Wall 
 ---------------------------------------------------------
NEW TASK SCHEDULING
CCSD_T1_NTS --- OK
CCSD_T2_NTS --- OK
    1   1.0200617795984  -0.1762511404191     1.6     2.7
    2   3.7975173902064   0.1092111045895     1.8     2.6
    3  17.6336115192142  -0.8346803474981     1.8     2.7
    4  56.0339029028630   2.7961556061303     1.8     2.6
    5 400.1300156817435  -6.0128098508187     1.9     2.6
 MICROCYCLE DIIS UPDATE:                    5                    5
    6   0.2774899361820  -0.1125943299290     1.8     2.6
    7   1.3097332839432  -0.0979997382172     1.8     2.6
    8   6.4744548825647  -0.2403523654080     1.8     2.7
    9  28.9567740922762   0.4874386330740     1.7     2.7
   10 187.8904489243266  -2.1619987394171     1.8     2.6
 MICROCYCLE DIIS UPDATE:                   10                    5
   11   0.0740137755236  -0.1221012385834     1.9     2.6
   12   0.3497980693865  -0.1309271976900     1.8     2.6
   13   1.6897605463801  -0.0979418258041     1.8     2.6
   14   8.4129224640459  -0.2705632590080     1.8     2.6
   15  36.6584804461760   0.6998410475304     1.8     2.6
 MICROCYCLE DIIS UPDATE:                   15                    5
   16   0.0127411498691  -0.1254056249337     1.9     2.6
   17   0.0581931154225  -0.1277813298536     1.9     2.7
   18   0.2814462730910  -0.1210669341999     1.8     2.7
   19   1.3717842383397  -0.1543079810984     1.8     2.6
   20   6.5527703673987   0.0055535080918     1.7     2.6
 MICROCYCLE DIIS UPDATE:                   20                    5
   21   0.0030426514869  -0.1268692356895     1.7     2.6
   22   0.0145055852180  -0.1272804782118     1.8     2.7
   23   0.0705771139349  -0.1255482049975     1.7     2.6
   24   0.3446772516132  -0.1336919923739     1.9     2.7
   25   1.6767690545377  -0.0946382664097     1.8     2.6
 MICROCYCLE DIIS UPDATE:                   25                    5
   26   0.0004262910150  -0.1269915460154     1.8     2.6
   27   0.0019025068599  -0.1270206288558     1.8     2.6
   28   0.0092501241246  -0.1268068584063     1.9     2.7
   29   0.0453786724345  -0.1278103795388     1.7     2.7
   30   0.2232011274488  -0.1229725469684     1.9     2.7
 MICROCYCLE DIIS UPDATE:                   30                    5
   31   0.0000532107574  -0.1269778612426     1.8     2.7
   32   0.0001002672018  -0.1269787147032     1.8     2.6
   33   0.0004041332299  -0.1269791881769     1.9     2.6
   34   0.0018599662877  -0.1269722834414     1.9     2.7
   35   0.0088841942530  -0.1270137486852     1.9     2.7
 MICROCYCLE DIIS UPDATE:                   35                    5
   36   0.0000103483601  -0.1269786922222     1.9     2.7
   37   0.0000334361819  -0.1269797280432     1.9     2.8
   38   0.0001502571433  -0.1269757884694     1.8     2.7
   39   0.0007036074576  -0.1269909206736     1.9     2.7
   40   0.0033365842479  -0.1269248425861     1.9     2.7
 MICROCYCLE DIIS UPDATE:                   40                    5
   41   0.0000022184776  -0.1269787809866     2.0     2.7
   42   0.0000029507574  -0.1269787622012     1.7     2.7
   43   0.0000111974625  -0.1269786996165     1.8     2.7
   44   0.0000526273499  -0.1269787598574     1.9     2.7
   45   0.0002548332807  -0.1269789291531     1.9     2.6
 MICROCYCLE DIIS UPDATE:                   45                    5
   46   0.0000005315845  -0.1269786892061     1.9     2.7
   47   0.0000014714128  -0.1269787743689     1.9     2.7
   48   0.0000064956930  -0.1269786125751     1.9     2.7
   49   0.0000301366200  -0.1269791923356     1.8     2.7
   50   0.0001418284446  -0.1269768521030     1.8     2.7
 MICROCYCLE DIIS UPDATE:                   50                    5
   51   0.0000001320843  -0.1269787377710     1.8     2.7
   52   0.0000001681197  -0.1269787394581     1.7     2.7
   53   0.0000006277479  -0.1269787331055     1.9     2.7
   54   0.0000029611491  -0.1269787495811     2.0     2.7
   55   0.0000144138596  -0.1269787112553     2.0     2.7
 MICROCYCLE DIIS UPDATE:                   55                    5
   56   0.0000000340783  -0.1269787372588     2.2     3.2
 -----------------------------------------------------------------
 Iterations converged
 CCSD correlation energy / hartree =        -0.126978737258841
 CCSD total energy / hartree       =       -99.958473168283589

 Singles contributions

 Doubles contributions
     6a   (alpha)     6a   (beta ) ---     5a   (alpha)     5a   (beta )       -0.4133181447
     6a   (alpha)     7a   (beta ) ---     4a   (alpha)     5a   (beta )       -0.0243768627
     6a   (alpha)     7a   (beta ) ---     5a   (alpha)     4a   (beta )       -0.0260493536
     7a   (alpha)     6a   (beta ) ---     4a   (alpha)     5a   (beta )       -0.0260493536
     7a   (alpha)     6a   (beta ) ---     5a   (alpha)     4a   (beta )       -0.0243768627
 Ground state specification:
 exp(T)|Ref>~(1+T)|Ref>
 ------- a(p)+/a(q) strings ----------

 singles norm

 doubles norm

 Reference string
  0.92417183495013744      :(1a)+ (2a)+ (3a)+ (4a)+ (5a)+ (1b)+ (2b)+ (3b)+ (4b)+ (5b)+ |0>

 Singles strings

 Doubles strings
 -0.38197698816145442      :(6a)+ (6b)+ (5b)  (5a)  (1a)+ (2a)+ (3a)+ (4a)+ (5a)+ (1b)+ (2b)+ (3b)+ (4b)+ (5b)+ |0>
 -------------------------------------

 Parallel integral file used       3 records with       0 large values


 Task  times  cpu:      104.1s     wall:      151.7s


                                NWChem Input Module
                                -------------------


 Summary of allocated global arrays
-----------------------------------
  No active global arrays


MA_summarize_allocated_blocks: starting scan ...
MA_summarize_allocated_blocks: scan completed: 0 heap blocks, 0 stack blocks
MA usage statistics:

	allocation statistics:
					      heap	     stack
					      ----	     -----
	current number of blocks	         0	         0
	maximum number of blocks	        18	        42
	current total bytes		         0	         0
	maximum total bytes		   9520896	  26465464
	maximum total K-bytes		      9521	     26466
	maximum total M-bytes		        10	        27


                                     CITATION
                                     --------
                Please cite the following reference when publishing
                           results obtained with NWChem:

          E. Apra, E. J. Bylaska, W. A. de Jong, N. Govind, K. Kowalski,
       T. P. Straatsma, M. Valiev, H. J. J. van Dam, Y. Alexeev, J. Anchell,
       V. Anisimov, F. W. Aquino, R. Atta-Fynn, J. Autschbach, N. P. Bauman,
     J. C. Becca, D. E. Bernholdt, K. Bhaskaran-Nair, S. Bogatko, P. Borowski,
         J. Boschen, J. Brabec, A. Bruner, E. Cauet, Y. Chen, G. N. Chuev,
      C. J. Cramer, J. Daily, M. J. O. Deegan, T. H. Dunning Jr., M. Dupuis,
   K. G. Dyall, G. I. Fann, S. A. Fischer, A. Fonari, H. Fruchtl, L. Gagliardi,
      J. Garza, N. Gawande, S. Ghosh, K. Glaesemann, A. W. Gotz, J. Hammond,
       V. Helms, E. D. Hermes, K. Hirao, S. Hirata, M. Jacquelin, L. Jensen,
   B. G. Johnson, H. Jonsson, R. A. Kendall, M. Klemm, R. Kobayashi, V. Konkov,
      S. Krishnamoorthy, M. Krishnan, Z. Lin, R. D. Lins, R. J. Littlefield,
      A. J. Logsdail, K. Lopata, W. Ma, A. V. Marenich, J. Martin del Campo,
   D. Mejia-Rodriguez, J. E. Moore, J. M. Mullin, T. Nakajima, D. R. Nascimento,
    J. A. Nichols, P. J. Nichols, J. Nieplocha, A. Otero-de-la-Roza, B. Palmer,
    A. Panyala, T. Pirojsirikul, B. Peng, R. Peverati, J. Pittner, L. Pollack,
   R. M. Richard, P. Sadayappan, G. C. Schatz, W. A. Shelton, D. W. Silverstein,
   D. M. A. Smith, T. A. Soares, D. Song, M. Swart, H. L. Taylor, G. S. Thomas,
            V. Tipparaju, D. G. Truhlar, K. Tsemekhman, T. Van Voorhis,
      A. Vazquez-Mayagoitia, P. Verma, O. Villa, A. Vishnu, K. D. Vogiatzis,
        D. Wang, J. H. Weare, M. J. Williamson, T. L. Windus, K. Wolinski,
        A. T. Wong, Q. Wu, C. Yang, Q. Yu, M. Zacharias, Z. Zhang, Y. Zhao,
                                and R. J. Harrison
                        "NWChem: Past, present, and future
                         J. Chem. Phys. 152, 184102 (2020)
                               doi:10.1063/5.0004997

                                      AUTHORS
                                      -------
  E. Apra, E. J. Bylaska, N. Govind, K. Kowalski, M. Valiev, D. Mejia-Rodriguez,
       A. Kunitsa, N. P. Bauman, A. Panyala, W. A. de Jong, T. P. Straatsma,
        H. J. J. van Dam, D. Wang, T. L. Windus, J. Hammond, J. Autschbach,
    K. Bhaskaran-Nair, J. Brabec, K. Lopata, S. A. Fischer, S. Krishnamoorthy,
     M. Jacquelin, W. Ma, M. Klemm, O. Villa, Y. Chen, V. Anisimov, F. Aquino,
    S. Hirata, M. T. Hackler, Eric Hermes, L. Jensen, J. E. Moore, J. C. Becca,
      V. Konjkov, T. Risthaus, M. Malagoli, A. Marenich, A. Otero-de-la-Roza,
        J. Mullin, P. Nichols, R. Peverati, J. Pittner, Y. Zhao, P.-D. Fan,
        A. Fonari, M. J. Williamson, R. J. Harrison, J. R. Rehr, M. Dupuis,
     D. Silverstein, D. M. A. Smith, J. Nieplocha, V. Tipparaju, M. Krishnan,
     B. E. Van Kuiken, A. Vazquez-Mayagoitia, M. Swart, Q. Wu, T. Van Voorhis,
     A. A. Auer, M. Nooijen, L. D. Crosby, E. Brown, G. Cisneros, G. I. Fann,
   H. Fruchtl, J. Garza, K. Hirao, R. A. Kendall, J. A. Nichols, K. Tsemekhman,
    K. Wolinski, J. Anchell, D. E. Bernholdt, P. Borowski, T. Clark, D. Clerc,
   H. Dachsel, M. J. O. Deegan, K. Dyall, D. Elwood, E. Glendening, M. Gutowski,
   A. C. Hess, J. Jaffe, B. G. Johnson, J. Ju, R. Kobayashi, R. Kutteh, Z. Lin,
   R. Littlefield, X. Long, B. Meng, T. Nakajima, S. Niu, L. Pollack, M. Rosing,
   K. Glaesemann, G. Sandrone, M. Stave, H. Taylor, G. Thomas, J. H. van Lenthe,
                               A. T. Wong, Z. Zhang.

 Total times  cpu:      107.6s     wall:      158.4s
