 argument  1 = input.nw
  NWChem w/ OpenMP: maximum threads =    1



============================== echo of input deck ==============================
 echo
 start H2
 title "H2"

 memory total 24 gb

 geometry units bohr
 symmetry c1
        H  0.00000000  0.00000000  0.00000000
        H  0.00000000  2.35  0.00000000
 end

 basis
   * library cc-pVQZ
 end

 mcscf
   active  10
   actelec 2
   multiplicity 1
   maxiter 40
   vectors input H2.mos
   vectors output H2.mos
 end

 task mcscf

 scf
   vectors input H2.mos
   vectors output H2-2.35.mos
   noscf
 end

 tce
   2eorb
   2emet 13
   ccsd
   maxiter 300
   lshift 0.8
 end

# set tce:print_integrals T
# set tce:qorb 10
# set tce:qela 1
# set tce:qelb 1

 set tce:qducc T
 set tce:nactv 9
 set tce:nonhf T
 set tce:ducc_model 6

 set tce:printtol 0.02

 task tce
================================================================================


                                         
                                         


             Northwest Computational Chemistry Package (NWChem) 7.0.1
             --------------------------------------------------------


                    Environmental Molecular Sciences Laboratory
                       Pacific Northwest National Laboratory
                                Richland, WA 99352

                              Copyright (c) 1994-2020
                       Pacific Northwest National Laboratory
                            Battelle Memorial Institute

             NWChem is an open-source computational chemistry package
                        distributed under the terms of the
                      Educational Community License (ECL) 2.0
             A copy of the license is included with this distribution
                              in the LICENSE.TXT file

                                  ACKNOWLEDGMENT
                                  --------------

            This software and its documentation were developed at the
            EMSL at Pacific Northwest National Laboratory, a multiprogram
            national laboratory, operated for the U.S. Department of Energy
            by Battelle under Contract Number DE-AC05-76RL01830. Support
            for this work was provided by the Department of Energy Office
            of Biological and Environmental Research, Office of Basic
            Energy Sciences, and the Office of Advanced Scientific Computing.


           Job information
           ---------------

    hostname        = WE46210
    program         = /home/baum612/code/nwchem/bin/LINUX64/nwchem
    date            = Sat Nov 11 00:27:19 2023

    compiled        = Mon_Nov_06_10:06:57_2023
    source          = /home/baum612/code/nwchem
    nwchem branch   = 7.0.0
    nwchem revision = nwchem_on_git-4191-g39d87d64de
    ga revision     = 5.8.1
    use scalapack   = F
    input           = input.nw
    prefix          = H2.
    data base       = ./H2.db
    status          = startup
    nproc           =        1
    time left       =     -1s



           Memory information
           ------------------

    heap     =  805306362 doubles =   6144.0 Mbytes
    stack    =  805306367 doubles =   6144.0 Mbytes
    global   = 1610612736 doubles =  12288.0 Mbytes (distinct from heap & stack)
    total    = 3221225465 doubles =  24576.0 Mbytes
    verify   = yes
    hardfail = no 


           Directory information
           ---------------------

  0 permanent = .
  0 scratch   = .




                                NWChem Input Module
                                -------------------


                                        H2
                                        --
 Turning off AUTOSYM since
 SYMMETRY directive was detected!


          ------
          auto-z
          ------
     1 autoz failed with cvr_scaling = 1.2 changing to 1.3
     2 autoz failed with cvr_scaling = 1.3 changing to 1.4
     3 autoz failed with cvr_scaling = 1.4 changing to 1.5
     4 autoz failed with cvr_scaling = 1.5 changing to 1.6
  no constraints, skipping    0.0000000000000000     
  no constraints, skipping    0.0000000000000000     


                             Geometry "geometry" -> ""
                             -------------------------

 Output coordinates in a.u. (scale by  1.000000000 to convert to a.u.)

  No.       Tag          Charge          X              Y              Z
 ---- ---------------- ---------- -------------- -------------- --------------
    1 H                    1.0000     0.00000000    -1.17500000     0.00000000
    2 H                    1.0000     0.00000000     1.17500000     0.00000000

      Atomic Mass 
      ----------- 

      H                  1.007825


 Effective nuclear repulsion energy (a.u.)       0.4255319149

            Nuclear Dipole moment (a.u.) 
            ----------------------------
        X                 Y               Z
 ---------------- ---------------- ----------------
     0.0000000000     0.0000000000     0.0000000000



                                Z-matrix (autoz)
                                -------- 

 Units are Angstrom for bonds and degrees for angles

      Type          Name      I     J     K     L     M      Value
      ----------- --------  ----- ----- ----- ----- ----- ----------
    1 Stretch                  1     2                       1.24357


            XYZ format geometry
            -------------------
     2
 geometry
 H                     0.00000000    -0.62178327     0.00000000
 H                     0.00000000     0.62178327     0.00000000



 Summary of "ao basis" -> "" (cartesian)
 ------------------------------------------------------------------------------
       Tag                 Description            Shells   Functions and Types
 ---------------- ------------------------------  ------  ---------------------
 *                          cc-pVQZ                   on all atoms 


                      Basis "ao basis" -> "ao basis" (cartesian)
                      -----
  H (Hydrogen)
  ------------
            Exponent  Coefficients 
       -------------- ---------------------------------------------------------
  1 S  8.26400000E+01  0.002006
  1 S  1.24100000E+01  0.015343
  1 S  2.82400000E+00  0.075579

  2 S  7.97700000E-01  1.000000

  3 S  2.58100000E-01  1.000000

  4 S  8.98900000E-02  1.000000

  5 P  2.29200000E+00  1.000000

  6 P  8.38000000E-01  1.000000

  7 P  2.92000000E-01  1.000000

  8 D  2.06200000E+00  1.000000

  9 D  6.62000000E-01  1.000000

 10 F  1.39700000E+00  1.000000



 Summary of "ao basis" -> "ao basis" (cartesian)
 ------------------------------------------------------------------------------
       Tag                 Description            Shells   Functions and Types
 ---------------- ------------------------------  ------  ---------------------
 H                          cc-pVQZ                 10       35   4s3p2d1f



                            NWChem Direct MCSCF Module
                            --------------------------


                                        H2


     -----------------------------------
       Basis functions:             70
       Inactive shells:              0
       Active shells:               10
       Active electrons:             2
       Symmetry:                    a       
       Multiplicity:                 1
       Orbital rotations:          600
     -----------------------------------

     -----------------------------------
       E2 extrapolation:             F
       Conjugacy:                    T
       Micro CI relax:               T
       Canonical orbitals:           T
       Maximum iterations:          40
       Converge threshold:    1.00E-04
       Conjugacy resets:            20
       Initial levelshift:        0.10
     -----------------------------------

 Loading old vectors from job with title :

H2


   input molecular orbitals = ./H2.mos
  output molecular orbtials = ./H2.mos

       No. of determinants:           100


  Starting Orbital Energies
    -0.504535    -0.035345    -0.003212    -0.002673    -0.002673    -0.000316
    -0.000220    -0.000185    -0.000185    -0.000090     0.443690     0.874199
     1.077174     1.352198     1.352198     1.477074     1.477074     1.932233
     1.932233     2.043059     2.120695     2.120695     2.335048     2.335048
     2.352600     2.838664     2.930773     2.930773     2.950678     3.828805
     4.137881     4.394574     4.394574     4.417117     4.417117     5.130653
     5.643909     5.643909     5.865776     5.865776     5.959604     5.959604
     6.213264     6.213264     6.596867     6.869028     6.869028     8.114379
     8.114379     8.273392     8.273392     8.342013     8.342013     8.387818
     8.387818     8.504553     8.504553     8.653921     9.065167     9.490102
     9.666584     9.687099     9.687099     9.723786     9.837485     9.837485
    10.236777    11.507869    22.692639    24.854609

  Orbital Symmetry Irreps
a    a    a    a    a    a    a    a    a    a    a    a    a    a    a   
a    a    a    a    a    a    a    a    a    a    a    a    a    a    a   
a    a    a    a    a    a    a    a    a    a    a    a    a    a    a   
a    a    a    a    a    a    a    a    a    a    a    a    a    a    a   
a    a    a    a    a    a    a    a    a    a   

 Integral file          = ./H2.aoints.0
 Record size in doubles =  65536        No. of integs per rec  =  43688
 Max. records in memory =     99        Max. records in file   = 280158
 No. of bits per label  =      8        No. of bits per value  =     64


 #quartets = 2.216D+04 #integrals = 8.606D+05 #direct =  0.0% #cached =100.0%




          %%%%% MacroIteration   1 %%%%%


          Number of sigma calls:       15
                       o<<<<< (aa):             0.00
                       o<<<<< (bb):             0.00
                       o<<<<< (ab):             0.02
                       o<<<<< (total)           0.02
                       o<<<<< (aa) ff           0.00
                       o<<<<< (aa) gop          0.00
                       o<<<<< (aa) dot          0.00
                       o<<<<< (ab) str          0.00
                       o<<<<< (ab) gath         0.00
                       o<<<<< (ab) dotab        0.00
                       o<<<<< (ab) scat         0.00
                       o<<<<< (ab) sync         0.00
                       o<<<<< Density           0.00
                       o<<<<< Density one       0.00
                       o<<<<< Density two       0.00
                       o<<<<< Density ab        0.00
                       o<<<<< Spin adapt        0.00
                       o<<<<< Symm adapt        0.00

                       o<<<<< (ab) max sync:      0.00

           >>>| Valence CI:             -1.530572387445
           >>>| MCSCF energy:           -1.105040472552
           >>>| Gradient norm:          0.772081151D-02
     --- Warning:  321 Hessian diagonals < 0.05 ---

                              ----- Line search ------

        step       energy         lsg     num-lsg   num-lsh   lsrat    time
      ------- ---------------- --------- --------- --------- ------- --------
       0.0000      -1.10504047 -5.35D-06  0.00D+00  0.00D+00 0.0D+00      0.4

          Number of sigma calls:       14
                       o<<<<< (aa):             0.00
                       o<<<<< (bb):             0.00
                       o<<<<< (ab):             0.02
                       o<<<<< (total)           0.02
                       o<<<<< (aa) ff           0.00
                       o<<<<< (aa) gop          0.00
                       o<<<<< (aa) dot          0.00
                       o<<<<< (ab) str          0.00
                       o<<<<< (ab) gath         0.00
                       o<<<<< (ab) dotab        0.00
                       o<<<<< (ab) scat         0.00
                       o<<<<< (ab) sync         0.00
                       o<<<<< Density           0.00
                       o<<<<< Density one       0.00
                       o<<<<< Density two       0.00
                       o<<<<< Density ab        0.00
                       o<<<<< Spin adapt        0.00
                       o<<<<< Symm adapt        0.00

                       o<<<<< (ab) max sync:      0.00
       1.0000      -1.10504370 -1.11D-06 -1.11D-06  4.24D-06 2.1D-01      0.7

          Number of sigma calls:       13
                       o<<<<< (aa):             0.00
                       o<<<<< (bb):             0.00
                       o<<<<< (ab):             0.01
                       o<<<<< (total)           0.01
                       o<<<<< (aa) ff           0.00
                       o<<<<< (aa) gop          0.00
                       o<<<<< (aa) dot          0.00
                       o<<<<< (ab) str          0.00
                       o<<<<< (ab) gath         0.00
                       o<<<<< (ab) dotab        0.00
                       o<<<<< (ab) scat         0.00
                       o<<<<< (ab) sync         0.00
                       o<<<<< Density           0.00
                       o<<<<< Density one       0.00
                       o<<<<< Density two       0.00
                       o<<<<< Density ab        0.00
                       o<<<<< Spin adapt        0.00
                       o<<<<< Symm adapt        0.00

                       o<<<<< (ab) max sync:      0.00
       1.2617      -1.10504385  1.97D-09  1.90D-09  4.25D-06 3.7D-04      0.9
     --- Orbitals canonicalized ---



          %%%%% MacroIteration   2 %%%%%


          Number of sigma calls:       15
                       o<<<<< (aa):             0.00
                       o<<<<< (bb):             0.00
                       o<<<<< (ab):             0.02
                       o<<<<< (total)           0.02
                       o<<<<< (aa) ff           0.00
                       o<<<<< (aa) gop          0.00
                       o<<<<< (aa) dot          0.00
                       o<<<<< (ab) str          0.00
                       o<<<<< (ab) gath         0.00
                       o<<<<< (ab) dotab        0.00
                       o<<<<< (ab) scat         0.00
                       o<<<<< (ab) sync         0.00
                       o<<<<< Density           0.00
                       o<<<<< Density one       0.00
                       o<<<<< Density two       0.00
                       o<<<<< Density ab        0.00
                       o<<<<< Spin adapt        0.00
                       o<<<<< Symm adapt        0.00

                       o<<<<< (ab) max sync:      0.00

           >>>| Valence CI:             -1.530575761107
           >>>| MCSCF energy:           -1.105043846214
           >>>| Gradient norm:          0.194103093D-02
     --- Warning:  319 Hessian diagonals < 0.05 ---
     --- Conjugacy reset ---

                              ----- Line search ------

        step       energy         lsg     num-lsg   num-lsh   lsrat    time
      ------- ---------------- --------- --------- --------- ------- --------
       0.0000      -1.10504385 -3.01D-07  0.00D+00  0.00D+00 0.0D+00      1.3

          Number of sigma calls:       12
                       o<<<<< (aa):             0.00
                       o<<<<< (bb):             0.00
                       o<<<<< (ab):             0.01
                       o<<<<< (total)           0.01
                       o<<<<< (aa) ff           0.00
                       o<<<<< (aa) gop          0.00
                       o<<<<< (aa) dot          0.00
                       o<<<<< (ab) str          0.00
                       o<<<<< (ab) gath         0.00
                       o<<<<< (ab) dotab        0.00
                       o<<<<< (ab) scat         0.00
                       o<<<<< (ab) sync         0.00
                       o<<<<< Density           0.00
                       o<<<<< Density one       0.00
                       o<<<<< Density two       0.00
                       o<<<<< Density ab        0.00
                       o<<<<< Spin adapt        0.00
                       o<<<<< Symm adapt        0.00

                       o<<<<< (ab) max sync:      0.00
       1.0000      -1.10504405 -9.81D-08 -9.81D-08  2.03D-07 3.3D-01      1.5

          Number of sigma calls:       11
                       o<<<<< (aa):             0.00
                       o<<<<< (bb):             0.00
                       o<<<<< (ab):             0.02
                       o<<<<< (total)           0.02
                       o<<<<< (aa) ff           0.00
                       o<<<<< (aa) gop          0.00
                       o<<<<< (aa) dot          0.00
                       o<<<<< (ab) str          0.00
                       o<<<<< (ab) gath         0.00
                       o<<<<< (ab) dotab        0.00
                       o<<<<< (ab) scat         0.00
                       o<<<<< (ab) sync         0.00
                       o<<<<< Density           0.00
                       o<<<<< Density one       0.00
                       o<<<<< Density two       0.00
                       o<<<<< Density ab        0.00
                       o<<<<< Spin adapt        0.00
                       o<<<<< Symm adapt        0.00

                       o<<<<< (ab) max sync:      0.00
       1.4832      -1.10504407  5.60D-11  5.34D-11  2.03D-07 1.9D-04      1.7



          %%%%% MacroIteration   3 %%%%%


          Number of sigma calls:        1
                       o<<<<< (aa):             0.00
                       o<<<<< (bb):             0.00
                       o<<<<< (ab):             0.00
                       o<<<<< (total)           0.00
                       o<<<<< (aa) ff           0.00
                       o<<<<< (aa) gop          0.00
                       o<<<<< (aa) dot          0.00
                       o<<<<< (ab) str          0.00
                       o<<<<< (ab) gath         0.00
                       o<<<<< (ab) dotab        0.00
                       o<<<<< (ab) scat         0.00
                       o<<<<< (ab) sync         0.00
                       o<<<<< Density           0.00
                       o<<<<< Density one       0.00
                       o<<<<< Density two       0.00
                       o<<<<< Density ab        0.00
                       o<<<<< Spin adapt        0.00
                       o<<<<< Symm adapt        0.00

                       o<<<<< (ab) max sync:      0.00

           >>>| Valence CI:             -1.530575984469
           >>>| MCSCF energy:           -1.105044069575
           >>>| Gradient norm:          0.846726143D-03
     --- Warning:  319 Hessian diagonals < 0.05 ---

                              ----- Line search ------

        step       energy         lsg     num-lsg   num-lsh   lsrat    time
      ------- ---------------- --------- --------- --------- ------- --------
       0.0000      -1.10504407 -5.74D-08  0.00D+00  0.00D+00 0.0D+00      1.9

          Number of sigma calls:       11
                       o<<<<< (aa):             0.00
                       o<<<<< (bb):             0.00
                       o<<<<< (ab):             0.02
                       o<<<<< (total)           0.02
                       o<<<<< (aa) ff           0.00
                       o<<<<< (aa) gop          0.00
                       o<<<<< (aa) dot          0.00
                       o<<<<< (ab) str          0.00
                       o<<<<< (ab) gath         0.00
                       o<<<<< (ab) dotab        0.00
                       o<<<<< (ab) scat         0.00
                       o<<<<< (ab) sync         0.00
                       o<<<<< Density           0.00
                       o<<<<< Density one       0.00
                       o<<<<< Density two       0.00
                       o<<<<< Density ab        0.00
                       o<<<<< Spin adapt        0.00
                       o<<<<< Symm adapt        0.00

                       o<<<<< (ab) max sync:      0.00
       1.0000      -1.10504411 -2.24D-08 -2.24D-08  3.50D-08 3.9D-01      2.0

          Number of sigma calls:       10
                       o<<<<< (aa):             0.00
                       o<<<<< (bb):             0.00
                       o<<<<< (ab):             0.00
                       o<<<<< (total)           0.00
                       o<<<<< (aa) ff           0.00
                       o<<<<< (aa) gop          0.00
                       o<<<<< (aa) dot          0.00
                       o<<<<< (ab) str          0.00
                       o<<<<< (ab) gath         0.00
                       o<<<<< (ab) dotab        0.00
                       o<<<<< (ab) scat         0.00
                       o<<<<< (ab) sync         0.00
                       o<<<<< Density           0.00
                       o<<<<< Density one       0.00
                       o<<<<< Density two       0.00
                       o<<<<< Density ab        0.00
                       o<<<<< Spin adapt        0.00
                       o<<<<< Symm adapt        0.00

                       o<<<<< (ab) max sync:      0.00
       1.6408      -1.10504412  4.32D-12  4.03D-12  3.50D-08 7.5D-05      2.3



          %%%%% MacroIteration   4 %%%%%


          Number of sigma calls:        1
                       o<<<<< (aa):             0.00
                       o<<<<< (bb):             0.00
                       o<<<<< (ab):             0.00
                       o<<<<< (total)           0.00
                       o<<<<< (aa) ff           0.00
                       o<<<<< (aa) gop          0.00
                       o<<<<< (aa) dot          0.00
                       o<<<<< (ab) str          0.00
                       o<<<<< (ab) gath         0.00
                       o<<<<< (ab) dotab        0.00
                       o<<<<< (ab) scat         0.00
                       o<<<<< (ab) sync         0.00
                       o<<<<< Density           0.00
                       o<<<<< Density one       0.00
                       o<<<<< Density two       0.00
                       o<<<<< Density ab        0.00
                       o<<<<< Spin adapt        0.00
                       o<<<<< Symm adapt        0.00

                       o<<<<< (ab) max sync:      0.00

           >>>| Valence CI:             -1.530576031588
           >>>| MCSCF energy:           -1.105044116694
           >>>| Gradient norm:          0.553066052D-03
     --- Warning:  319 Hessian diagonals < 0.05 ---

                              ----- Line search ------

        step       energy         lsg     num-lsg   num-lsh   lsrat    time
      ------- ---------------- --------- --------- --------- ------- --------
       0.0000      -1.10504412 -2.39D-08  0.00D+00  0.00D+00 0.0D+00      2.3

          Number of sigma calls:       11
                       o<<<<< (aa):             0.00
                       o<<<<< (bb):             0.00
                       o<<<<< (ab):             0.00
                       o<<<<< (total)           0.00
                       o<<<<< (aa) ff           0.00
                       o<<<<< (aa) gop          0.00
                       o<<<<< (aa) dot          0.00
                       o<<<<< (ab) str          0.00
                       o<<<<< (ab) gath         0.00
                       o<<<<< (ab) dotab        0.00
                       o<<<<< (ab) scat         0.00
                       o<<<<< (ab) sync         0.00
                       o<<<<< Density           0.00
                       o<<<<< Density one       0.00
                       o<<<<< Density two       0.00
                       o<<<<< Density ab        0.00
                       o<<<<< Spin adapt        0.00
                       o<<<<< Symm adapt        0.00

                       o<<<<< (ab) max sync:      0.00
       1.0000      -1.10504414 -1.79D-08 -1.79D-08  5.92D-09 7.5D-01      2.4

          Number of sigma calls:       12
                       o<<<<< (aa):             0.00
                       o<<<<< (bb):             0.00
                       o<<<<< (ab):             0.01
                       o<<<<< (total)           0.01
                       o<<<<< (aa) ff           0.00
                       o<<<<< (aa) gop          0.00
                       o<<<<< (aa) dot          0.00
                       o<<<<< (ab) str          0.00
                       o<<<<< (ab) gath         0.00
                       o<<<<< (ab) dotab        0.00
                       o<<<<< (ab) scat         0.00
                       o<<<<< (ab) sync         0.00
                       o<<<<< Density           0.00
                       o<<<<< Density one       0.00
                       o<<<<< Density two       0.00
                       o<<<<< Density ab        0.00
                       o<<<<< Spin adapt        0.00
                       o<<<<< Symm adapt        0.00

                       o<<<<< (ab) max sync:      0.00
       4.0301      -1.10504416  2.42D-11  2.11D-11  5.93D-09 1.0D-03      2.6



          %%%%% MacroIteration   5 %%%%%


          Number of sigma calls:        1
                       o<<<<< (aa):             0.00
                       o<<<<< (bb):             0.00
                       o<<<<< (ab):             0.00
                       o<<<<< (total)           0.00
                       o<<<<< (aa) ff           0.00
                       o<<<<< (aa) gop          0.00
                       o<<<<< (aa) dot          0.00
                       o<<<<< (ab) str          0.00
                       o<<<<< (ab) gath         0.00
                       o<<<<< (ab) dotab        0.00
                       o<<<<< (ab) scat         0.00
                       o<<<<< (ab) sync         0.00
                       o<<<<< Density           0.00
                       o<<<<< Density one       0.00
                       o<<<<< Density two       0.00
                       o<<<<< Density ab        0.00
                       o<<<<< Spin adapt        0.00
                       o<<<<< Symm adapt        0.00

                       o<<<<< (ab) max sync:      0.00

           >>>| Valence CI:             -1.530576079642
           >>>| MCSCF energy:           -1.105044164749
           >>>| Gradient norm:          0.234234126D-03
     --- Warning:  319 Hessian diagonals < 0.05 ---

                              ----- Line search ------

        step       energy         lsg     num-lsg   num-lsh   lsrat    time
      ------- ---------------- --------- --------- --------- ------- --------
       0.0000      -1.10504416 -9.03D-08  0.00D+00  0.00D+00 0.0D+00      2.7

          Number of sigma calls:       11
                       o<<<<< (aa):             0.00
                       o<<<<< (bb):             0.00
                       o<<<<< (ab):             0.01
                       o<<<<< (total)           0.01
                       o<<<<< (aa) ff           0.00
                       o<<<<< (aa) gop          0.00
                       o<<<<< (aa) dot          0.00
                       o<<<<< (ab) str          0.00
                       o<<<<< (ab) gath         0.00
                       o<<<<< (ab) dotab        0.00
                       o<<<<< (ab) scat         0.00
                       o<<<<< (ab) sync         0.00
                       o<<<<< Density           0.00
                       o<<<<< Density one       0.00
                       o<<<<< Density two       0.00
                       o<<<<< Density ab        0.00
                       o<<<<< Spin adapt        0.00
                       o<<<<< Symm adapt        0.00

                       o<<<<< (ab) max sync:      0.00
       1.0000      -1.10504423 -4.58D-08 -4.58D-08  4.45D-08 5.1D-01      2.9

          Number of sigma calls:       11
                       o<<<<< (aa):             0.00
                       o<<<<< (bb):             0.00
                       o<<<<< (ab):             0.01
                       o<<<<< (total)           0.01
                       o<<<<< (aa) ff           0.00
                       o<<<<< (aa) gop          0.00
                       o<<<<< (aa) dot          0.00
                       o<<<<< (ab) str          0.00
                       o<<<<< (ab) gath         0.00
                       o<<<<< (ab) dotab        0.00
                       o<<<<< (ab) scat         0.00
                       o<<<<< (ab) sync         0.00
                       o<<<<< Density           0.00
                       o<<<<< Density one       0.00
                       o<<<<< Density two       0.00
                       o<<<<< Density ab        0.00
                       o<<<<< Spin adapt        0.00
                       o<<<<< Symm adapt        0.00

                       o<<<<< (ab) max sync:      0.00
       2.0287      -1.10504426  2.37D-10  2.17D-10  4.48D-08 2.6D-03      3.1



          %%%%% MacroIteration   6 %%%%%


          Number of sigma calls:        1
                       o<<<<< (aa):             0.00
                       o<<<<< (bb):             0.00
                       o<<<<< (ab):             0.00
                       o<<<<< (total)           0.00
                       o<<<<< (aa) ff           0.00
                       o<<<<< (aa) gop          0.00
                       o<<<<< (aa) dot          0.00
                       o<<<<< (ab) str          0.00
                       o<<<<< (ab) gath         0.00
                       o<<<<< (ab) dotab        0.00
                       o<<<<< (ab) scat         0.00
                       o<<<<< (ab) sync         0.00
                       o<<<<< Density           0.00
                       o<<<<< Density one       0.00
                       o<<<<< Density two       0.00
                       o<<<<< Density ab        0.00
                       o<<<<< Spin adapt        0.00
                       o<<<<< Symm adapt        0.00

                       o<<<<< (ab) max sync:      0.00

           >>>| Valence CI:             -1.530576171181
           >>>| MCSCF energy:           -1.105044256287
           >>>| Gradient norm:          0.162255672D-03
     --- Warning:  319 Hessian diagonals < 0.05 ---

                              ----- Line search ------

        step       energy         lsg     num-lsg   num-lsh   lsrat    time
      ------- ---------------- --------- --------- --------- ------- --------
       0.0000      -1.10504426 -1.76D-08  0.00D+00  0.00D+00 0.0D+00      3.3

          Number of sigma calls:        8
                       o<<<<< (aa):             0.00
                       o<<<<< (bb):             0.00
                       o<<<<< (ab):             0.01
                       o<<<<< (total)           0.01
                       o<<<<< (aa) ff           0.00
                       o<<<<< (aa) gop          0.00
                       o<<<<< (aa) dot          0.00
                       o<<<<< (ab) str          0.00
                       o<<<<< (ab) gath         0.00
                       o<<<<< (ab) dotab        0.00
                       o<<<<< (ab) scat         0.00
                       o<<<<< (ab) sync         0.00
                       o<<<<< Density           0.00
                       o<<<<< Density one       0.00
                       o<<<<< Density two       0.00
                       o<<<<< Density ab        0.00
                       o<<<<< Spin adapt        0.00
                       o<<<<< Symm adapt        0.00

                       o<<<<< (ab) max sync:      0.00
       1.0000      -1.10504427 -1.19D-08 -1.19D-08  5.76D-09 6.7D-01      3.4

          Number of sigma calls:        9
                       o<<<<< (aa):             0.00
                       o<<<<< (bb):             0.00
                       o<<<<< (ab):             0.00
                       o<<<<< (total)           0.00
                       o<<<<< (aa) ff           0.00
                       o<<<<< (aa) gop          0.00
                       o<<<<< (aa) dot          0.00
                       o<<<<< (ab) str          0.00
                       o<<<<< (ab) gath         0.00
                       o<<<<< (ab) dotab        0.00
                       o<<<<< (ab) scat         0.00
                       o<<<<< (ab) sync         0.00
                       o<<<<< Density           0.00
                       o<<<<< Density one       0.00
                       o<<<<< Density two       0.00
                       o<<<<< Density ab        0.00
                       o<<<<< Spin adapt        0.00
                       o<<<<< Symm adapt        0.00

                       o<<<<< (ab) max sync:      0.00
       3.0628      -1.10504428  2.40D-11  2.13D-11  5.77D-09 1.4D-03      3.5



          %%%%% MacroIteration   7 %%%%%


          Number of sigma calls:        1
                       o<<<<< (aa):             0.00
                       o<<<<< (bb):             0.00
                       o<<<<< (ab):             0.00
                       o<<<<< (total)           0.00
                       o<<<<< (aa) ff           0.00
                       o<<<<< (aa) gop          0.00
                       o<<<<< (aa) dot          0.00
                       o<<<<< (ab) str          0.00
                       o<<<<< (ab) gath         0.00
                       o<<<<< (ab) dotab        0.00
                       o<<<<< (ab) scat         0.00
                       o<<<<< (ab) sync         0.00
                       o<<<<< Density           0.00
                       o<<<<< Density one       0.00
                       o<<<<< Density two       0.00
                       o<<<<< Density ab        0.00
                       o<<<<< Spin adapt        0.00
                       o<<<<< Symm adapt        0.00

                       o<<<<< (ab) max sync:      0.00

           >>>| Valence CI:             -1.530576198178
           >>>| MCSCF energy:           -1.105044283285
           >>>| Gradient norm:          0.344977165D-03
     --- Warning:  319 Hessian diagonals < 0.05 ---

                              ----- Line search ------

        step       energy         lsg     num-lsg   num-lsh   lsrat    time
      ------- ---------------- --------- --------- --------- ------- --------
       0.0000      -1.10504428 -6.79D-09  0.00D+00  0.00D+00 0.0D+00      3.6

          Number of sigma calls:        9
                       o<<<<< (aa):             0.00
                       o<<<<< (bb):             0.00
                       o<<<<< (ab):             0.00
                       o<<<<< (total)           0.00
                       o<<<<< (aa) ff           0.00
                       o<<<<< (aa) gop          0.00
                       o<<<<< (aa) dot          0.00
                       o<<<<< (ab) str          0.00
                       o<<<<< (ab) gath         0.00
                       o<<<<< (ab) dotab        0.00
                       o<<<<< (ab) scat         0.00
                       o<<<<< (ab) sync         0.00
                       o<<<<< Density           0.00
                       o<<<<< Density one       0.00
                       o<<<<< Density two       0.00
                       o<<<<< Density ab        0.00
                       o<<<<< Spin adapt        0.00
                       o<<<<< Symm adapt        0.00

                       o<<<<< (ab) max sync:      0.00
       1.0000      -1.10504429 -3.27D-09 -3.27D-09  3.53D-09 4.8D-01      3.7

          Number of sigma calls:        9
                       o<<<<< (aa):             0.00
                       o<<<<< (bb):             0.00
                       o<<<<< (ab):             0.00
                       o<<<<< (total)           0.00
                       o<<<<< (aa) ff           0.00
                       o<<<<< (aa) gop          0.00
                       o<<<<< (aa) dot          0.00
                       o<<<<< (ab) str          0.00
                       o<<<<< (ab) gath         0.00
                       o<<<<< (ab) dotab        0.00
                       o<<<<< (ab) scat         0.00
                       o<<<<< (ab) sync         0.00
                       o<<<<< Density           0.00
                       o<<<<< Density one       0.00
                       o<<<<< Density two       0.00
                       o<<<<< Density ab        0.00
                       o<<<<< Spin adapt        0.00
                       o<<<<< Symm adapt        0.00

                       o<<<<< (ab) max sync:      0.00
       1.9253      -1.10504429  5.86D-13  5.32D-13  3.53D-09 8.6D-05      3.7



          %%%%% MacroIteration   8 %%%%%


          Number of sigma calls:        1
                       o<<<<< (aa):             0.00
                       o<<<<< (bb):             0.00
                       o<<<<< (ab):             0.00
                       o<<<<< (total)           0.00
                       o<<<<< (aa) ff           0.00
                       o<<<<< (aa) gop          0.00
                       o<<<<< (aa) dot          0.00
                       o<<<<< (ab) str          0.00
                       o<<<<< (ab) gath         0.00
                       o<<<<< (ab) dotab        0.00
                       o<<<<< (ab) scat         0.00
                       o<<<<< (ab) sync         0.00
                       o<<<<< Density           0.00
                       o<<<<< Density one       0.00
                       o<<<<< Density two       0.00
                       o<<<<< Density ab        0.00
                       o<<<<< Spin adapt        0.00
                       o<<<<< Symm adapt        0.00

                       o<<<<< (ab) max sync:      0.00

           >>>| Valence CI:             -1.530576204718
           >>>| MCSCF energy:           -1.105044289825
           >>>| Gradient norm:          0.137895312D-03
     --- Warning:  319 Hessian diagonals < 0.05 ---

                              ----- Line search ------

        step       energy         lsg     num-lsg   num-lsh   lsrat    time
      ------- ---------------- --------- --------- --------- ------- --------
       0.0000      -1.10504429 -5.17D-09  0.00D+00  0.00D+00 0.0D+00      3.9

          Number of sigma calls:        9
                       o<<<<< (aa):             0.00
                       o<<<<< (bb):             0.00
                       o<<<<< (ab):             0.01
                       o<<<<< (total)           0.02
                       o<<<<< (aa) ff           0.00
                       o<<<<< (aa) gop          0.00
                       o<<<<< (aa) dot          0.00
                       o<<<<< (ab) str          0.00
                       o<<<<< (ab) gath         0.00
                       o<<<<< (ab) dotab        0.00
                       o<<<<< (ab) scat         0.00
                       o<<<<< (ab) sync         0.00
                       o<<<<< Density           0.00
                       o<<<<< Density one       0.00
                       o<<<<< Density two       0.00
                       o<<<<< Density ab        0.00
                       o<<<<< Spin adapt        0.00
                       o<<<<< Symm adapt        0.00

                       o<<<<< (ab) max sync:      0.00
       1.0000      -1.10504429 -3.08D-09 -3.08D-09  2.09D-09 6.0D-01      4.1

          Number of sigma calls:       10
                       o<<<<< (aa):             0.00
                       o<<<<< (bb):             0.00
                       o<<<<< (ab):             0.00
                       o<<<<< (total)           0.00
                       o<<<<< (aa) ff           0.00
                       o<<<<< (aa) gop          0.00
                       o<<<<< (aa) dot          0.00
                       o<<<<< (ab) str          0.00
                       o<<<<< (ab) gath         0.00
                       o<<<<< (ab) dotab        0.00
                       o<<<<< (ab) scat         0.00
                       o<<<<< (ab) sync         0.00
                       o<<<<< Density           0.00
                       o<<<<< Density one       0.00
                       o<<<<< Density two       0.00
                       o<<<<< Density ab        0.00
                       o<<<<< Spin adapt        0.00
                       o<<<<< Symm adapt        0.00

                       o<<<<< (ab) max sync:      0.00
       2.4695      -1.10504430 -3.08D-13 -2.84D-13  2.09D-09 6.0D-05      4.2



          %%%%% MacroIteration   9 %%%%%


          Number of sigma calls:        1
                       o<<<<< (aa):             0.00
                       o<<<<< (bb):             0.00
                       o<<<<< (ab):             0.00
                       o<<<<< (total)           0.00
                       o<<<<< (aa) ff           0.00
                       o<<<<< (aa) gop          0.00
                       o<<<<< (aa) dot          0.00
                       o<<<<< (ab) str          0.00
                       o<<<<< (ab) gath         0.00
                       o<<<<< (ab) dotab        0.00
                       o<<<<< (ab) scat         0.00
                       o<<<<< (ab) sync         0.00
                       o<<<<< Density           0.00
                       o<<<<< Density one       0.00
                       o<<<<< Density two       0.00
                       o<<<<< Density ab        0.00
                       o<<<<< Spin adapt        0.00
                       o<<<<< Symm adapt        0.00

                       o<<<<< (ab) max sync:      0.00

           >>>| Valence CI:             -1.530576211102
           >>>| MCSCF energy:           -1.105044296208
           >>>| Gradient norm:          0.344922805D-04




     ==============================
            MCSCF Converged
     ==============================



          Canonical Eigenvalues

              1      
    1   -0.4995
    2   -0.0372
    3   -0.0031
    4   -0.0026
    5   -0.0026
    6   -0.0003
    7   -0.0002
    8   -0.0002
    9   -0.0002
   10   -0.0001
   11    0.4475
   12    0.8727
   13    1.0761
   14    1.3575
   15    1.3575
   16    1.4859
   17    1.4859
   18    1.9351
   19    1.9351
   20    2.0437
   21    2.1040
   22    2.1040
   23    2.3234
   24    2.3234
   25    2.3901
   26    2.8300
   27    2.9089
   28    2.9089
   29    2.9526
   30    3.8480
   31    4.0933
   32    4.3981
   33    4.3981
   34    4.4220
   35    4.4220
   36    5.0703
   37    5.6554
   38    5.6554
   39    5.8163
   40    5.8163
   41    5.9721
   42    5.9721
   43    6.1971
   44    6.1971
   45    6.5072
   46    6.8021
   47    6.8021
   48    8.1131
   49    8.1131
   50    8.1926
   51    8.1926
   52    8.2694
   53    8.2694
   54    8.3734
   55    8.3734
   56    8.5342
   57    8.5342
   58    8.6693
   59    9.0729
   60    9.4238
   61    9.6844
   62    9.6844
   63    9.6929
   64    9.7155
   65    9.8250
   66    9.8250
   67   10.1653
   68   11.3296
   69   22.6948
   70   24.6468


          Converged CI vector

   Index           Coefficient          Config. Occupation
         1         -0.97445644          1  1
        12          0.20855220          2  2
        23          0.04795549          3  3
        34          0.04413975          4  4
        45          0.04413975          5  5

          Number of sigma calls:        1
                       o<<<<< (aa):             0.00
                       o<<<<< (bb):             0.00
                       o<<<<< (ab):             0.00
                       o<<<<< (total)           0.00
                       o<<<<< (aa) ff           0.00
                       o<<<<< (aa) gop          0.00
                       o<<<<< (aa) dot          0.00
                       o<<<<< (ab) str          0.00
                       o<<<<< (ab) gath         0.00
                       o<<<<< (ab) dotab        0.00
                       o<<<<< (ab) scat         0.00
                       o<<<<< (ab) sync         0.00
                       o<<<<< Density           0.00
                       o<<<<< Density one       0.00
                       o<<<<< Density two       0.00
                       o<<<<< Density ab        0.00
                       o<<<<< Spin adapt        0.00
                       o<<<<< Symm adapt        0.00

                       o<<<<< (ab) max sync:      0.00



          Natural orbital occupation numbers

              1      
    1    1.8997
    2    0.0870
    3    0.0046
    4    0.0039
    5    0.0039
    6    0.0003
    7    0.0002
    8    0.0002
    9    0.0002
   10    0.0001


          Number of sigma calls:       15
                       o<<<<< (aa):             0.00
                       o<<<<< (bb):             0.00
                       o<<<<< (ab):             0.02
                       o<<<<< (total)           0.02
                       o<<<<< (aa) ff           0.00
                       o<<<<< (aa) gop          0.00
                       o<<<<< (aa) dot          0.00
                       o<<<<< (ab) str          0.00
                       o<<<<< (ab) gath         0.00
                       o<<<<< (ab) dotab        0.00
                       o<<<<< (ab) scat         0.00
                       o<<<<< (ab) sync         0.00
                       o<<<<< Density           0.00
                       o<<<<< Density one       0.00
                       o<<<<< Density two       0.00
                       o<<<<< Density ab        0.00
                       o<<<<< Spin adapt        0.00
                       o<<<<< Symm adapt        0.00

                       o<<<<< (ab) max sync:      0.00


       Final MCSCF results 
       ------------------- 

       Total MCSCF energy =     -1.105044296208
            Gradient norm =      3.4D-05

    CPU time for solution =      4.5s
   Wall time for solution =      6.3s



                        Analysis of MCSCF natural orbitals
                        ----------------------------------

 Vector    1  Occ=1.899656D+00  E=-4.995254D-01  Symmetry=a
              MO Center= -1.2D-16,  6.1D-13,  9.6D-18, r^2= 1.1D+00
   Bfn.  Coefficient  Atom+Function         Bfn.  Coefficient  Atom+Function  
  ----- ------------  ---------------      ----- ------------  ---------------
     3      0.283867  1 H  s                 38      0.283867  2 H  s          
     2      0.156973  1 H  s                 37      0.156973  2 H  s          
     4      0.151808  1 H  s                 39      0.151808  2 H  s          

 Vector    2  Occ=8.699234D-02  E=-3.716354D-02  Symmetry=a
              MO Center=  1.5D-14,  1.1D-13, -9.3D-15, r^2= 1.1D+00
   Bfn.  Coefficient  Atom+Function         Bfn.  Coefficient  Atom+Function  
  ----- ------------  ---------------      ----- ------------  ---------------
     3      0.508788  1 H  s                 38     -0.508788  2 H  s          
     2      0.312247  1 H  s                 37     -0.312247  2 H  s          

 Vector    3  Occ=4.637151D-03  E=-3.115102D-03  Symmetry=a
              MO Center= -5.4D-14, -3.2D-11,  3.4D-14, r^2= 2.0D+00
   Bfn.  Coefficient  Atom+Function         Bfn.  Coefficient  Atom+Function  
  ----- ------------  ---------------      ----- ------------  ---------------
     4      0.423790  1 H  s                  9     -0.425715  1 H  py         
    39      0.423790  2 H  s                 44      0.425715  2 H  py         
     2     -0.368415  1 H  s                 37     -0.368415  2 H  s          

 Vector    4  Occ=3.896634D-03  E=-2.598487D-03  Symmetry=a
              MO Center=  5.9D-14,  8.9D-12,  1.0D-14, r^2= 1.1D+00
   Bfn.  Coefficient  Atom+Function         Bfn.  Coefficient  Atom+Function  
  ----- ------------  ---------------      ----- ------------  ---------------
    11      0.451879  1 H  px                46      0.451879  2 H  px         
    21      0.209501  1 H  dxy               56     -0.209501  2 H  dxy        

 Vector    5  Occ=3.896634D-03  E=-2.598487D-03  Symmetry=a
              MO Center=  8.9D-15,  8.8D-12, -5.0D-14, r^2= 1.1D+00
   Bfn.  Coefficient  Atom+Function         Bfn.  Coefficient  Atom+Function  
  ----- ------------  ---------------      ----- ------------  ---------------
    13      0.451879  1 H  pz                48      0.451879  2 H  pz         
    24      0.209501  1 H  dyz               59     -0.209501  2 H  dyz        

 Vector    6  Occ=3.245923D-04  E=-3.123905D-04  Symmetry=a
              MO Center= -1.3D-14, -1.1D-10,  6.7D-15, r^2= 9.6D-01
   Bfn.  Coefficient  Atom+Function         Bfn.  Coefficient  Atom+Function  
  ----- ------------  ---------------      ----- ------------  ---------------
     2      0.721546  1 H  s                 37      0.721546  2 H  s          
     9     -0.403753  1 H  py                44      0.403753  2 H  py         
    12     -0.294707  1 H  py                47      0.294707  2 H  py         
     4     -0.155218  1 H  s                 39     -0.155218  2 H  s          

 Vector    7  Occ=1.971335D-04  E=-2.139451D-04  Symmetry=a
              MO Center= -6.2D-13,  8.2D-11,  3.6D-13, r^2= 1.4D+00
   Bfn.  Coefficient  Atom+Function         Bfn.  Coefficient  Atom+Function  
  ----- ------------  ---------------      ----- ------------  ---------------
     2      0.734957  1 H  s                 37     -0.734957  2 H  s          
     3     -0.469790  1 H  s                 38      0.469790  2 H  s          
     4     -0.296919  1 H  s                 39      0.296919  2 H  s          
     9      0.196899  1 H  py                44      0.196899  2 H  py         

 Vector    8  Occ=1.688444D-04  E=-1.809509D-04  Symmetry=a
              MO Center=  1.6D-13, -1.5D-11, -8.3D-15, r^2= 9.9D-01
   Bfn.  Coefficient  Atom+Function         Bfn.  Coefficient  Atom+Function  
  ----- ------------  ---------------      ----- ------------  ---------------
     8      0.787987  1 H  px                43     -0.787987  2 H  px         
    11      0.351843  1 H  px                46     -0.351843  2 H  px         
    21      0.187478  1 H  dxy               56      0.187478  2 H  dxy        

 Vector    9  Occ=1.688444D-04  E=-1.809509D-04  Symmetry=a
              MO Center= -4.2D-15, -1.5D-11, -8.3D-14, r^2= 9.9D-01
   Bfn.  Coefficient  Atom+Function         Bfn.  Coefficient  Atom+Function  
  ----- ------------  ---------------      ----- ------------  ---------------
    10      0.787987  1 H  pz                45     -0.787987  2 H  pz         
    13      0.351843  1 H  pz                48     -0.351843  2 H  pz         
    24      0.187478  1 H  dyz               59      0.187478  2 H  dyz        

 Vector   10  Occ=6.227592D-05  E=-8.678823D-05  Symmetry=a
              MO Center= -2.7D-15,  2.8D-10,  3.7D-16, r^2= 1.7D+00
   Bfn.  Coefficient  Atom+Function         Bfn.  Coefficient  Atom+Function  
  ----- ------------  ---------------      ----- ------------  ---------------
    32     -0.576789  1 H  fyyy              67      0.576789  2 H  fyyy       
     3      0.565925  1 H  s                 38      0.565925  2 H  s          
     9      0.551259  1 H  py                44     -0.551259  2 H  py         
     4     -0.487003  1 H  s                 39     -0.487003  2 H  s          
     6     -0.383579  1 H  py                41      0.383579  2 H  py         

 Vector   11  Occ=0.000000D+00  E= 4.475041D-01  Symmetry=a
              MO Center=  3.6D-13, -1.0D-10, -2.2D-13, r^2= 7.0D+00
   Bfn.  Coefficient  Atom+Function         Bfn.  Coefficient  Atom+Function  
  ----- ------------  ---------------      ----- ------------  ---------------
     4      3.143476  1 H  s                 39     -3.143476  2 H  s          
     3     -2.448498  1 H  s                 38      2.448498  2 H  s          
     9     -0.805599  1 H  py                44     -0.805599  2 H  py         
    12      0.724181  1 H  py                47      0.724181  2 H  py         
     2      0.693200  1 H  s                 37     -0.693200  2 H  s          

 Vector   12  Occ=0.000000D+00  E= 8.727088D-01  Symmetry=a
              MO Center=  1.2D-15,  5.0D-10, -5.0D-16, r^2= 4.8D+00
   Bfn.  Coefficient  Atom+Function         Bfn.  Coefficient  Atom+Function  
  ----- ------------  ---------------      ----- ------------  ---------------
     3      3.382511  1 H  s                 38      3.382511  2 H  s          
     9      2.310125  1 H  py                44     -2.310125  2 H  py         
     4     -1.323873  1 H  s                 39     -1.323873  2 H  s          
     2     -1.053049  1 H  s                 37     -1.053049  2 H  s          
    12     -0.957297  1 H  py                47      0.957297  2 H  py         

 Vector   13  Occ=0.000000D+00  E= 1.076107D+00  Symmetry=a
              MO Center= -1.2D-12, -9.2D-10,  7.6D-13, r^2= 2.8D+00
   Bfn.  Coefficient  Atom+Function         Bfn.  Coefficient  Atom+Function  
  ----- ------------  ---------------      ----- ------------  ---------------
     3      6.080009  1 H  s                 38     -6.080009  2 H  s          
    12      3.824890  1 H  py                47      3.824890  2 H  py         
     9     -2.265501  1 H  py                44     -2.265501  2 H  py         
     2     -1.117419  1 H  s                 37      1.117419  2 H  s          
    32      0.898220  1 H  fyyy              67      0.898220  2 H  fyyy       

 Vector   14  Occ=0.000000D+00  E= 1.357458D+00  Symmetry=a
              MO Center=  1.6D-12, -5.1D-11,  1.7D-14, r^2= 2.9D+00
   Bfn.  Coefficient  Atom+Function         Bfn.  Coefficient  Atom+Function  
  ----- ------------  ---------------      ----- ------------  ---------------
     8      5.685430  1 H  px                43     -5.685430  2 H  px         
    26     -2.170050  1 H  fxxx              29     -2.163403  1 H  fxyy       
    31     -2.170050  1 H  fxzz              61      2.170050  2 H  fxxx       
    64      2.163403  2 H  fxyy              66      2.170050  2 H  fxzz       
    11     -2.000847  1 H  px                46      2.000847  2 H  px         

 Vector   15  Occ=0.000000D+00  E= 1.357458D+00  Symmetry=a
              MO Center=  1.1D-14, -5.1D-11, -9.5D-13, r^2= 2.9D+00
   Bfn.  Coefficient  Atom+Function         Bfn.  Coefficient  Atom+Function  
  ----- ------------  ---------------      ----- ------------  ---------------
    10      5.685430  1 H  pz                45     -5.685430  2 H  pz         
    28     -2.170050  1 H  fxxz              33     -2.163403  1 H  fyyz       
    35     -2.170050  1 H  fzzz              63      2.170050  2 H  fxxz       
    68      2.163403  2 H  fyyz              70      2.170050  2 H  fzzz       
    13     -2.000847  1 H  pz                48      2.000847  2 H  pz         

 Vector   16  Occ=0.000000D+00  E= 1.485885D+00  Symmetry=a
              MO Center=  3.0D-16,  4.7D-11,  1.1D-17, r^2= 2.1D+00
   Bfn.  Coefficient  Atom+Function         Bfn.  Coefficient  Atom+Function  
  ----- ------------  ---------------      ----- ------------  ---------------
    10      5.286658  1 H  pz                45      5.286658  2 H  pz         
    33     -2.114604  1 H  fyyz              68     -2.114604  2 H  fyyz       
    28     -2.059276  1 H  fxxz              35     -2.059276  1 H  fzzz       
    63     -2.059276  2 H  fxxz              70     -2.059276  2 H  fzzz       
     7     -1.399783  1 H  pz                42     -1.399783  2 H  pz         

 Vector   17  Occ=0.000000D+00  E= 1.485885D+00  Symmetry=a
              MO Center= -9.7D-16,  4.8D-11,  9.7D-17, r^2= 2.1D+00
   Bfn.  Coefficient  Atom+Function         Bfn.  Coefficient  Atom+Function  
  ----- ------------  ---------------      ----- ------------  ---------------
     8      5.286658  1 H  px                43      5.286658  2 H  px         
    29     -2.114604  1 H  fxyy              64     -2.114604  2 H  fxyy       
    26     -2.059276  1 H  fxxx              31     -2.059276  1 H  fxzz       
    61     -2.059276  2 H  fxxx              66     -2.059276  2 H  fxzz       
     5     -1.399783  1 H  px                40     -1.399783  2 H  px         

 Vector   18  Occ=0.000000D+00  E= 1.935113D+00  Symmetry=a
              MO Center= -8.4D-16,  2.7D-14, -6.0D-16, r^2= 1.1D+00
   Bfn.  Coefficient  Atom+Function         Bfn.  Coefficient  Atom+Function  
  ----- ------------  ---------------      ----- ------------  ---------------
    20      0.610731  1 H  dxx               25     -0.610731  1 H  dzz        
    55      0.610731  2 H  dxx               60     -0.610731  2 H  dzz        

 Vector   19  Occ=0.000000D+00  E= 1.935113D+00  Symmetry=a
              MO Center=  1.7D-16,  3.3D-14,  1.7D-16, r^2= 1.1D+00
   Bfn.  Coefficient  Atom+Function         Bfn.  Coefficient  Atom+Function  
  ----- ------------  ---------------      ----- ------------  ---------------
    22      1.221462  1 H  dxz               57      1.221462  2 H  dxz        
    16     -0.173572  1 H  dxz               51     -0.173572  2 H  dxz        

 Vector   20  Occ=0.000000D+00  E= 2.043735D+00  Symmetry=a
              MO Center= -5.1D-13,  4.2D-10,  3.0D-13, r^2= 3.2D+00
   Bfn.  Coefficient  Atom+Function         Bfn.  Coefficient  Atom+Function  
  ----- ------------  ---------------      ----- ------------  ---------------
     9      4.594062  1 H  py                44      4.594062  2 H  py         
    12     -2.196991  1 H  py                47     -2.196991  2 H  py         
    32     -1.823010  1 H  fyyy              67     -1.823010  2 H  fyyy       
     3      1.782641  1 H  s                 38     -1.782641  2 H  s          
    27     -1.658761  1 H  fxxy              34     -1.658761  1 H  fyzz       


 Wrote Lagrangian and 1- and 2-particle density matrices to ./H2.mcpdm


     Multipole analysis of the density
     ---------------------------------

     L   x y z        total        nuclear
     -   - - -        -----        -------
     0   0 0 0     -0.000000      2.000000

     1   1 0 0     -0.000000      0.000000
     1   0 1 0     -0.000000      0.000000
     1   0 0 1      0.000000      0.000000

     2   2 0 0     -1.955010      0.000000
     2   1 1 0      0.000000      0.000000
     2   1 0 1     -0.000000      0.000000
     2   0 2 0     -1.081626      2.761250
     2   0 1 1     -0.000000      0.000000
     2   0 0 2     -1.955010      0.000000


  Mulliken analysis of the total density
  --------------------------------------

    Atom       Charge   Shell Charges
 -----------   ------   -------------------------------------------------------
    1 H    1     1.00   0.05  0.21  0.48  0.24  0.00  0.00  0.01  0.00  0.01  0.00
    2 H    1     1.00   0.05  0.21  0.48  0.24  0.00  0.00  0.01  0.00  0.01  0.00

    Mulliken analysis of the active space density
    ---------------------------------------------

    Atom       Charge   Shell Charges
 -----------   ------   -------------------------------------------------------
    1 H    1     1.00   0.05  0.21  0.48  0.24  0.00  0.00  0.01  0.00  0.01  0.00
    2 H    1     1.00   0.05  0.21  0.48  0.24  0.00  0.00  0.01  0.00  0.01  0.00

 Parallel integral file used      20 records with       0 large values


 Task  times  cpu:        4.5s     wall:        6.3s


                                NWChem Input Module
                                -------------------


                                 NWChem SCF Module
                                 -----------------


                                        H2



  ao basis        = "ao basis"
  functions       =    70
  atoms           =     2
  closed shells   =     1
  open shells     =     0
  charge          =   0.00
  wavefunction    = RHF 
  input vectors   = ./H2.mos
  output vectors  = ./H2-2.35.mos
  use symmetry    = F
  symmetry adapt  = F


 Summary of "ao basis" -> "ao basis" (cartesian)
 ------------------------------------------------------------------------------
       Tag                 Description            Shells   Functions and Types
 ---------------- ------------------------------  ------  ---------------------
 H                          cc-pVQZ                 10       35   4s3p2d1f



 Forming initial guess at       6.3s


 Loading old vectors from job with title :

H2


 Starting SCF solution at       6.3s



 ----------------------------------------------
         Quadratically convergent ROHF

 Convergence threshold     :          1.000E-04
 Maximum no. of iterations :           30
 Final Fock-matrix accuracy:          1.000E-07
 ----------------------------------------------


 Integral file          = ./H2.aoints.0
 Record size in doubles =  65536        No. of integs per rec  =  43688
 Max. records in memory =     99        Max. records in file   = 280209
 No. of bits per label  =      8        No. of bits per value  =     64


 #quartets = 2.216D+04 #integrals = 8.606D+05 #direct =  0.0% #cached =100.0%



       Final RHF  results 
       ------------------ 

         Total SCF energy =     -1.053340263803
      One-electron energy =     -2.009449331164
      Two-electron energy =      0.530577152467
 Nuclear repulsion energy =      0.425531914894

        Time for solution =      0.1s


             Final eigenvalues
             -----------------

              1      
    1   -0.4995
    2   -0.0372
    3   -0.0031
    4   -0.0026
    5   -0.0026
    6   -0.0003
    7   -0.0002
    8   -0.0002
    9   -0.0002
   10   -0.0001
   11    0.4475

                       ROHF Final Molecular Orbital Analysis
                       -------------------------------------

 Vector    1  Occ=2.000000D+00  E=-4.995254D-01
              MO Center= -1.2D-16,  6.1D-13,  9.6D-18, r^2= 1.1D+00
   Bfn.  Coefficient  Atom+Function         Bfn.  Coefficient  Atom+Function  
  ----- ------------  ---------------      ----- ------------  ---------------
     3      0.283867  1 H  s                 38      0.283867  2 H  s          
     2      0.156973  1 H  s                 37      0.156973  2 H  s          
     4      0.151808  1 H  s                 39      0.151808  2 H  s          

 Vector    2  Occ=0.000000D+00  E=-3.716354D-02
              MO Center=  1.5D-14,  1.1D-13, -9.3D-15, r^2= 1.1D+00
   Bfn.  Coefficient  Atom+Function         Bfn.  Coefficient  Atom+Function  
  ----- ------------  ---------------      ----- ------------  ---------------
     3      0.508788  1 H  s                 38     -0.508788  2 H  s          
     2      0.312247  1 H  s                 37     -0.312247  2 H  s          

 Vector    3  Occ=0.000000D+00  E=-3.115102D-03
              MO Center= -5.4D-14, -3.2D-11,  3.4D-14, r^2= 2.0D+00
   Bfn.  Coefficient  Atom+Function         Bfn.  Coefficient  Atom+Function  
  ----- ------------  ---------------      ----- ------------  ---------------
     4      0.423790  1 H  s                  9     -0.425715  1 H  py         
    39      0.423790  2 H  s                 44      0.425715  2 H  py         
     2     -0.368415  1 H  s                 37     -0.368415  2 H  s          

 Vector    4  Occ=0.000000D+00  E=-2.598487D-03
              MO Center=  5.9D-14,  8.9D-12,  1.0D-14, r^2= 1.1D+00
   Bfn.  Coefficient  Atom+Function         Bfn.  Coefficient  Atom+Function  
  ----- ------------  ---------------      ----- ------------  ---------------
    11      0.451879  1 H  px                46      0.451879  2 H  px         
    21      0.209501  1 H  dxy               56     -0.209501  2 H  dxy        

 Vector    5  Occ=0.000000D+00  E=-2.598487D-03
              MO Center=  8.9D-15,  8.8D-12, -5.0D-14, r^2= 1.1D+00
   Bfn.  Coefficient  Atom+Function         Bfn.  Coefficient  Atom+Function  
  ----- ------------  ---------------      ----- ------------  ---------------
    13      0.451879  1 H  pz                48      0.451879  2 H  pz         
    24      0.209501  1 H  dyz               59     -0.209501  2 H  dyz        

 Vector    6  Occ=0.000000D+00  E=-3.123905D-04
              MO Center= -1.3D-14, -1.1D-10,  6.7D-15, r^2= 9.6D-01
   Bfn.  Coefficient  Atom+Function         Bfn.  Coefficient  Atom+Function  
  ----- ------------  ---------------      ----- ------------  ---------------
     2      0.721546  1 H  s                 37      0.721546  2 H  s          
     9     -0.403753  1 H  py                44      0.403753  2 H  py         
    12     -0.294707  1 H  py                47      0.294707  2 H  py         
     4     -0.155218  1 H  s                 39     -0.155218  2 H  s          

 Vector    7  Occ=0.000000D+00  E=-2.139451D-04
              MO Center= -6.2D-13,  8.2D-11,  3.6D-13, r^2= 1.4D+00
   Bfn.  Coefficient  Atom+Function         Bfn.  Coefficient  Atom+Function  
  ----- ------------  ---------------      ----- ------------  ---------------
     2      0.734957  1 H  s                 37     -0.734957  2 H  s          
     3     -0.469790  1 H  s                 38      0.469790  2 H  s          
     4     -0.296919  1 H  s                 39      0.296919  2 H  s          
     9      0.196899  1 H  py                44      0.196899  2 H  py         

 Vector    8  Occ=0.000000D+00  E=-1.809509D-04
              MO Center=  1.6D-13, -1.5D-11, -8.3D-15, r^2= 9.9D-01
   Bfn.  Coefficient  Atom+Function         Bfn.  Coefficient  Atom+Function  
  ----- ------------  ---------------      ----- ------------  ---------------
     8      0.787987  1 H  px                43     -0.787987  2 H  px         
    11      0.351843  1 H  px                46     -0.351843  2 H  px         
    21      0.187478  1 H  dxy               56      0.187478  2 H  dxy        

 Vector    9  Occ=0.000000D+00  E=-1.809509D-04
              MO Center= -4.2D-15, -1.5D-11, -8.3D-14, r^2= 9.9D-01
   Bfn.  Coefficient  Atom+Function         Bfn.  Coefficient  Atom+Function  
  ----- ------------  ---------------      ----- ------------  ---------------
    10      0.787987  1 H  pz                45     -0.787987  2 H  pz         
    13      0.351843  1 H  pz                48     -0.351843  2 H  pz         
    24      0.187478  1 H  dyz               59      0.187478  2 H  dyz        

 Vector   10  Occ=0.000000D+00  E=-8.678823D-05
              MO Center= -2.7D-15,  2.8D-10,  3.7D-16, r^2= 1.7D+00
   Bfn.  Coefficient  Atom+Function         Bfn.  Coefficient  Atom+Function  
  ----- ------------  ---------------      ----- ------------  ---------------
    32     -0.576789  1 H  fyyy              67      0.576789  2 H  fyyy       
     3      0.565925  1 H  s                 38      0.565925  2 H  s          
     9      0.551259  1 H  py                44     -0.551259  2 H  py         
     4     -0.487003  1 H  s                 39     -0.487003  2 H  s          
     6     -0.383579  1 H  py                41      0.383579  2 H  py         

 Vector   11  Occ=0.000000D+00  E= 4.475041D-01
              MO Center=  3.6D-13, -1.0D-10, -2.2D-13, r^2= 7.0D+00
   Bfn.  Coefficient  Atom+Function         Bfn.  Coefficient  Atom+Function  
  ----- ------------  ---------------      ----- ------------  ---------------
     4      3.143476  1 H  s                 39     -3.143476  2 H  s          
     3     -2.448498  1 H  s                 38      2.448498  2 H  s          
     9     -0.805599  1 H  py                44     -0.805599  2 H  py         
    12      0.724181  1 H  py                47      0.724181  2 H  py         
     2      0.693200  1 H  s                 37     -0.693200  2 H  s          

 Vector   12  Occ=0.000000D+00  E= 8.727088D-01
              MO Center=  1.2D-15,  5.0D-10, -5.0D-16, r^2= 4.8D+00
   Bfn.  Coefficient  Atom+Function         Bfn.  Coefficient  Atom+Function  
  ----- ------------  ---------------      ----- ------------  ---------------
     3      3.382511  1 H  s                 38      3.382511  2 H  s          
     9      2.310125  1 H  py                44     -2.310125  2 H  py         
     4     -1.323873  1 H  s                 39     -1.323873  2 H  s          
     2     -1.053049  1 H  s                 37     -1.053049  2 H  s          
    12     -0.957297  1 H  py                47      0.957297  2 H  py         


 center of mass
 --------------
 x =   0.00000000 y =   0.00000000 z =   0.00000000

 moments of inertia (a.u.)
 ------------------
           2.782856781250           0.000000000000           0.000000000000
           0.000000000000           0.000000000000           0.000000000000
           0.000000000000           0.000000000000           2.782856781250

  Mulliken analysis of the total density
  --------------------------------------

    Atom       Charge   Shell Charges
 -----------   ------   -------------------------------------------------------
    1 H    1     1.00   0.04  0.21  0.48  0.25  0.00 -0.00  0.01  0.00  0.01  0.00
    2 H    1     1.00   0.04  0.21  0.48  0.25  0.00 -0.00  0.01  0.00  0.01  0.00

       Multipole analysis of the density wrt the origin
       ------------------------------------------------

     L   x y z        total         open         nuclear
     -   - - -        -----         ----         -------
     0   0 0 0     -0.000000      0.000000      2.000000

     1   1 0 0      0.000000      0.000000      0.000000
     1   0 1 0     -0.000000      0.000000      0.000000
     1   0 0 1     -0.000000      0.000000      0.000000

     2   2 0 0     -1.980525      0.000000      0.000000
     2   1 1 0     -0.000000      0.000000      0.000000
     2   1 0 1     -0.000000      0.000000      0.000000
     2   0 2 0     -1.003976      0.000000      2.761250
     2   0 1 1      0.000000      0.000000      0.000000
     2   0 0 2     -1.980525      0.000000      0.000000


 Parallel integral file used      20 records with       0 large values

                   NWChem Extensible Many-Electron Theory Module
                   ---------------------------------------------

              ======================================================
                   This portion of the program was automatically
                  generated by a Tensor Contraction Engine (TCE).
                  The development of this portion of the program
                 and TCE was supported by US Department of Energy,
                Office of Science, Office of Basic Energy Science.
                      TCE is a product of Battelle and PNNL.
              Please cite: S.Hirata, J.Phys.Chem.A 107, 9887 (2003).
              ======================================================

                                        H2


            General Information
            -------------------
      Number of processors :     1
         Wavefunction type : Restricted Hartree-Fock
          No. of electrons :     2
           Alpha electrons :     1
            Beta electrons :     1
           No. of orbitals :   140
            Alpha orbitals :    70
             Beta orbitals :    70
        Alpha frozen cores :     0
         Beta frozen cores :     0
     Alpha frozen virtuals :     0
      Beta frozen virtuals :     0
         Spin multiplicity : singlet 
    Number of AO functions :    70
       Number of AO shells :    20
        Use of symmetry is : off
      Symmetry adaption is : off
         Schwarz screening : 0.10D-09

          Correlation Information
          -----------------------
          Calculation type : Coupled-cluster singles & doubles                           
   Perturbative correction : none                                                        
            Max iterations :      300
        Residual threshold : 0.10D-06
     T(0) DIIS level shift : 0.80D+00
     L(0) DIIS level shift : 0.00D+00
     T(1) DIIS level shift : 0.00D+00
     L(1) DIIS level shift : 0.00D+00
     T(R) DIIS level shift : 0.00D+00
     T(I) DIIS level shift : 0.00D+00
   CC-T/L Amplitude update :  5-th order DIIS
                I/O scheme : Global Array Library
        L-threshold :  0.10D-06
        EOM-threshold :  0.10D-06
 no EOMCCSD initial starts read in
 TCE RESTART OPTIONS
 READ_INT:   F
 WRITE_INT:  F
 READ_TA:    F
 WRITE_TA:   F
 READ_XA:    F
 WRITE_XA:   F
 READ_IN3:   F
 WRITE_IN3:  F
 SLICE:      F
 D4D5:       F
 quantumc:   F
 qrotation:  F
 pwtce:      F
 qducc:      T
 nacto:                         0
 nrotv:                         0
 nrot:                          0

            Memory Information
            ------------------
          Available GA space size is    1610607836 doubles
          Available MA space size is    1610610644 doubles

 Maximum block size        32 doubles

 tile_dim =     23

 Block   Spin    Irrep     Size     Offset   Alpha
 -------------------------------------------------
   1    alpha     a      1 doubles       0       1
   2    beta      a      1 doubles       1       1
   3    alpha     a     23 doubles       2       3
   4    alpha     a     23 doubles      25       4
   5    alpha     a     23 doubles      48       5
   6    beta      a     23 doubles      71       3
   7    beta      a     23 doubles      94       4
   8    beta      a     23 doubles     117       5

 Global array virtual files algorithm will be used

 Parallel file system coherency ......... OK

 Integral file          = ./H2.aoints.0
 Record size in doubles =  65536        No. of integs per rec  =  43688
 Max. records in memory =     99        Max. records in file   = 280209
 No. of bits per label  =      8        No. of bits per value  =     64


 #quartets = 2.216D+04 #integrals = 8.606D+05 #direct =  0.0% #cached =100.0%


 Fock matrix recomputed
 1-e file size   =             4900
 1-e file name   = ./H2.f1
 Cpu & wall time / sec            0.1            0.1
 4-electron integrals stored in orbital form

 v2    file size   =          6102085
 4-index algorithm nr.  13 is used
 imaxsize =       30
 imaxsize ichop =        0
 Cpu & wall time / sec            2.1            2.1
 T1-number-of-tasks                    3

 t1 file size   =               69
 t1 file name   = ./H2.t1
 t1 file handle =       -998
 T2-number-of-boxes                   15

 t2 file size   =             7935
 t2 file name   = ./H2.t2
 t2 file handle =       -996
CCSD iterations
 ---------------------------------------------------------
 Iter          Residuum       Correlation     Cpu    Wall 
 ---------------------------------------------------------
NEW TASK SCHEDULING
CCSD_T1_NTS --- OK
CCSD_T2_NTS --- OK
    1   0.6735743834565  -0.0840421899852     0.1     0.1
    2   0.6224026071122  -0.0334353514475     0.1     0.1
    3   0.7085024527385  -0.0653418210260     0.1     0.1
    4   0.9017345062966  -0.0360159277278     0.1     0.1
    5   1.1850747533048  -0.0670283396051     0.1     0.1
 MICROCYCLE DIIS UPDATE:                    5                    5
    6   0.0174113003218  -0.0505442552626     0.1     0.1
    7   0.0128176238123  -0.0512053406650     0.1     0.1
    8   0.0098200124430  -0.0514788766472     0.0     0.1
    9   0.0091035397009  -0.0518538080084     0.1     0.1
   10   0.0110029694297  -0.0520362272712     0.1     0.1
 MICROCYCLE DIIS UPDATE:                   10                    5
   11   0.0019126813946  -0.0527294311953     0.1     0.1
   12   0.0013371961941  -0.0527370665142     0.1     0.1
   13   0.0012164396698  -0.0527713665464     0.1     0.1
   14   0.0013787281085  -0.0527663902242     0.1     0.1
   15   0.0016751910155  -0.0528052728340     0.1     0.1
 MICROCYCLE DIIS UPDATE:                   15                    5
   16   0.0002207769937  -0.0528131332398     0.2     0.2
   17   0.0001531526162  -0.0528098565759     0.1     0.1
   18   0.0001213834122  -0.0528160761030     0.1     0.1
   19   0.0001206152699  -0.0528155104545     0.1     0.1
   20   0.0001455751670  -0.0528204518052     0.1     0.1
 MICROCYCLE DIIS UPDATE:                   20                    5
   21   0.0000270453694  -0.0528234037639     0.1     0.1
   22   0.0000179030962  -0.0528243580019     0.1     0.1
   23   0.0000146114421  -0.0528250502252     0.1     0.1
   24   0.0000145513710  -0.0528253100957     0.1     0.1
   25   0.0000161035528  -0.0528258435805     0.1     0.1
 MICROCYCLE DIIS UPDATE:                   25                    5
   26   0.0000034794117  -0.0528263638783     0.1     0.1
   27   0.0000022510101  -0.0528263191391     0.1     0.1
   28   0.0000016369099  -0.0528264045604     0.1     0.1
   29   0.0000013603444  -0.0528264121509     0.1     0.1
   30   0.0000014017523  -0.0528264481155     0.1     0.1
 MICROCYCLE DIIS UPDATE:                   30                    5
   31   0.0000004297693  -0.0528265040963     0.1     0.1
   32   0.0000002753091  -0.0528265206597     0.1     0.1
   33   0.0000002316831  -0.0528265265015     0.1     0.1
   34   0.0000002283434  -0.0528265379105     0.1     0.1
   35   0.0000002639755  -0.0528265370496     0.2     0.2
 MICROCYCLE DIIS UPDATE:                   35                    5
   36   0.0000000581990  -0.0528265515335     0.1     0.1
 -----------------------------------------------------------------
 Iterations converged
 CCSD correlation energy / hartree =        -0.052826551533511
 CCSD total energy / hartree       =        -1.106166815336694

 Singles contributions

 Doubles contributions
     2a   (alpha)     2a   (beta ) ---     1a   (alpha)     1a   (beta )       -0.2112091908
     3a   (alpha)     3a   (beta ) ---     1a   (alpha)     1a   (beta )       -0.0484548966
     4a   (alpha)     4a   (beta ) ---     1a   (alpha)     1a   (beta )       -0.0446694359
     5a   (alpha)     5a   (beta ) ---     1a   (alpha)     1a   (beta )       -0.0446694359
 Ground state specification:
 exp(T)|Ref>~(1+T)|Ref>
 ------- a(p)+/a(q) strings ----------

 singles norm

 doubles norm

 Reference string
  0.97841488548877709      :(1a)+ (1b)+ |0>

 Singles strings

 Doubles strings
 -0.20665021619631294      :(2a)+ (2b)+ (1b)  (1a)  (1a)+ (1b)+ |0>
 -------------------------------------
 enrep_tce =   0.42553191489361691     
  EHF(total)         =        -1.05334026
  Shift (HFtot-HFA)  =         0.00000000
 ALL OCCUPIED ORBITALS ARE ACTIVE IN DUCC --> NO SHIFT
 Number of active orbitals                   10
 Number of active alpha electrons                    1
 Number of active beta electrons                    1
  nos                     2
  nvs                   138
 noas                     1
 nobs                     1
 nvas                    69
 nvbs                    69
 nactv                     9
 DUCC MODEL =                     6
 NONHF =  T
 F-T1 correlation    =    5.4452195113077780E-006
 V-T1-T1 correlation =    1.3160902049774968E-008
 V-T2 correlation    =   -5.2832009913924331E-002
 Total correlation   =   -5.2826551533510971E-002
 F-T1(Ext) correlation         =   -7.8564330615180642E-007
 V-T1(Ext)-T1(Ext) correlation =    2.6090272279105004E-010
 V-T2(Ext) correlation         =   -1.8323049479666194E-003
 Total Ext correlation         =   -1.8330903303700483E-003
1-BODY TIME =   31.652 SECONDS.
  HHHH TIME =   25.447 SECONDS.
  PPPP TIME =   35.635 SECONDS.
  HHHP TIME =    2.568 SECONDS.
  PPPH TIME =    2.860 SECONDS.
  HPHP TIME =    4.410 SECONDS.
  HHPP TIME =    2.393 SECONDS.
 ONE-BODY UNITARY CHECK
 TWO-BODY UNITARY CHECK
 TWO-BODY ANTISYMMETRY CHECK
 TRANSFORMED ~FOCK~ MATRIX
    1    1        -0.4766342323
    1    3        -0.0059678899
    1    6         0.0252779013
    1   10         0.0018299010
    2    2         0.2211611565
    2    7         0.2798499837
    3    1        -0.0059678899
    3    3         0.6902670600
    3    6         0.1279394066
    3   10         0.6225008227
    4    4         0.7113043539
    5    5         0.7113043539
    6    1         0.0252779013
    6    3         0.1279394066
[...]
    9    1    2    4        0.0097710023
    9    1    2    5        0.0415559226
    9    2    2    9        0.0846795719
    9    3    2    4       -0.0006847758
    9    3    2    5       -0.0029123411
    9    4    2    1        0.0272208680
    9    4    2    3       -0.0022548793
    9    4    2    6        0.0182084761
    9    4    2   10        0.0039759775
    9    5    2    1        0.1157699330
    9    5    2    3       -0.0095899670
    9    5    2    6        0.0774403690
    9    5    2   10        0.0169097710
    9    6    2    4        0.0027417648
    9    6    2    5        0.0116606836
    9    7    2    9        0.0098075352
    9    9    2    2        0.5355908567
    9    9    2    7        0.1020298640
    9   10    2    4        0.0036700120
    9   10    2    5        0.0156085045
    9    1    3    9       -0.0055474135
    9    2    3    4       -0.0015784833
    9    2    3    5       -0.0067132650
    9    3    3    9        0.0131744510
    9    4    3    2       -0.0022548794
    9    4    3    7       -0.0201749922
    9    5    3    2       -0.0095899674
    9    5    3    7       -0.0858039318
    9    6    3    9       -0.0010940889
    9    7    3    4       -0.0041261413
    9    7    3    5       -0.0175484156
    9    9    3    1       -0.1063187291
    9    9    3    3        0.4510617657
    9    9    3    6        0.0249559469
    9    9    3   10        0.1057985723
    9   10    3    9        0.0005940664
    9    1    4    2        0.0097617177
    9    1    4    7        0.0009514965
    9    2    4    1        0.0171869886
    9    2    4    3       -0.0015784837
    9    2    4    6       -0.0044975706
    9    2    4   10        0.0066940575
    9    3    4    2       -0.0006847764
    9    3    4    7       -0.0028713204
    9    4    4    8        0.0218802279
    9    4    4    9        0.0186835890
    9    5    4    8        0.0795173269
    9    5    4    9        0.0218802279
    9    6    4    2        0.0027417696
    9    6    4    7        0.0004180153
    9    7    4    1        0.0020975541
    9    7    4    3       -0.0041261437
    9    7    4    6       -0.0003504423
    9    7    4   10       -0.0002913016
    9    8    4    4        0.0090754477
    9    8    4    5        0.0182319030
    9    9    4    4        0.4751232053
    9    9    4    5        0.0090754477
    9   10    4    2        0.0036700134
    9   10    4    7       -0.0002850516
    9    1    5    2        0.0415164354
    9    1    5    7        0.0040467001
    9    2    5    1        0.0730959985
    9    2    5    3       -0.0067132671
    9    2    5    6       -0.0191280988
    9    2    5   10        0.0284697235
    9    3    5    2       -0.0029123435
    9    3    5    7       -0.0122116813
    9    4    5    8        0.0083942699
    9    4    5    9        0.0218802279
    9    5    5    8       -0.0218802279
    9    5    5    9        0.1065951859
    9    6    5    2        0.0116607038
    9    6    5    7        0.0017778128
    9    7    5    1        0.0089208653
    9    7    5    3       -0.0175484257
    9    7    5    6       -0.0014904257
    9    7    5   10       -0.0012389013
    9    8    5    4        0.0182319358
    9    8    5    5       -0.0090754477
    9    9    5    4        0.0090754477
    9    9    5    5        0.5115870441
    9   10    5    2        0.0156085104
    9   10    5    7       -0.0012123203
    9    1    6    9        0.0172331162
    9    2    6    4       -0.0044975739
    9    2    6    5       -0.0191281127
    9    3    6    9       -0.0010940889
    9    4    6    2        0.0182084776
    9    4    6    7        0.0057445654
    9    5    6    2        0.0774403752
    9    5    6    7        0.0244315483
    9    6    6    9        0.0188537075
    9    7    6    4       -0.0003504446
    9    7    6    5       -0.0014904356
    9    9    6    1        0.0386373002
    9    9    6    3        0.0249559469
    9    9    6    6        0.5313360968
    9    9    6   10        0.0145683724
    9   10    6    9        0.0052400616
    9    1    7    4        0.0009583158
    9    1    7    5        0.0040757026
    9    2    7    9        0.0098075352
    9    3    7    4       -0.0028713202
    9    3    7    5       -0.0122116805
    9    4    7    1        0.0062495684
    9    4    7    3       -0.0201749944
    9    4    7    6        0.0057445646
    9    4    7   10       -0.0024738002
    9    5    7    1        0.0265793183
    9    5    7    3       -0.0858039410
    9    5    7    6        0.0244315451
    9    5    7   10       -0.0105210343
    9    6    7    4        0.0004180123
    9    6    7    5        0.0017777998
    9    7    7    9        0.0230153002
    9    9    7    2        0.1020298640
    9    9    7    7        0.5104510123
    9   10    7    4       -0.0002850492
    9   10    7    5       -0.0012123097
    9    4    8    4        0.0218802214
    9    4    8    5        0.0083942406
    9    5    8    4        0.0795173304
    9    5    8    5       -0.0218802214
    9    8    8    9        0.0246355950
    9    9    8    8        0.5097521977
    9    1    9    1        0.0554118987
    9    1    9    3       -0.0054994750
    9    1    9    6        0.0172214012
    9    1    9   10        0.0210209273
    9    2    9    2        0.0846795646
    9    2    9    7        0.0098075326
    9    3    9    1       -0.0054994750
    9    3    9    3        0.0131744435
    9    3    9    6       -0.0010941011
    9    3    9   10        0.0005940611
    9    4    9    4        0.0186836743
    9    4    9    5        0.0218802214
    9    5    9    4        0.0218802214
    9    5    9    5        0.1065952452
    9    6    9    1        0.0172214012
    9    6    9    3       -0.0010941011
    9    6    9    6        0.0188537694
    9    6    9   10        0.0052400629
    9    7    9    2        0.0098075326
    9    7    9    7        0.0230153569
    9    8    9    8        0.0246356411
    9    9    9    9        0.5590234339
    9   10    9    1        0.0210209273
    9   10    9    3        0.0005940611
    9   10    9    6        0.0052400629
    9   10    9   10        0.0140548071
    9    1   10    9        0.0210051576
    9    2   10    4        0.0066940566
    9    2   10    5        0.0284697199
    9    3   10    9        0.0005940664
    9    4   10    2        0.0039759780
    9    4   10    7       -0.0024737995
    9    5   10    2        0.0169097733
    9    5   10    7       -0.0105210311
    9    6   10    9        0.0052400616
    9    7   10    4       -0.0002912984
    9    7   10    5       -0.0012388876
    9    9   10    1        0.0145106024
    9    9   10    3        0.1057985723
    9    9   10    6        0.0145683724
    9    9   10   10        0.4812699227
    9   10   10    9        0.0140547691
   10    1    1    1       -0.0046515021
   10    1    1    3        0.0308061705
   10    1    1    6        0.0064206403
   10    1    1   10        0.0404907225
   10    2    1    2        0.0168058257
   10    2    1    7       -0.0041103446
   10    3    1    1        0.1304245361
   10    3    1    3       -0.0939940286
   10    3    1    6       -0.0130946510
   10    3    1   10       -0.0427541133
   10    4    1    4        0.0345599654
   10    5    1    5        0.0345599654
   10    6    1    1        0.0193216695
   10    6    1    3       -0.0197504561
   10    6    1    6        0.0144943850
   10    6    1   10       -0.0175075175
   10    7    1    2       -0.0177055634
   10    7    1    7       -0.0371979598
   10    8    1    8        0.0210209273
   10    9    1    9        0.0210209273
   10   10    1    1        0.5098799701
   10   10    1    3       -0.1511767283
   10   10    1    6       -0.0080178991
   10   10    1   10       -0.0462649109
   10    1    2    2        0.0056529097
   10    1    2    7       -0.0209766172
   10    2    2    1        0.0168038297
   10    2    2    3        0.0035528799
   10    2    2    6        0.0163692704
   10    2    2   10        0.0165571119
   10    3    2    2        0.1067328421
   10    3    2    7        0.0779043891
   10    4    2    8        0.0284697235
   10    4    2    9        0.0066940575
   10    5    2    8       -0.0066940575
   10    5    2    9        0.0284697235
   10    6    2    2        0.0253964832
   10    6    2    7        0.0154865296
   10    7    2    1       -0.0177250607
   10    7    2    3        0.0283475970
   10    7    2    6       -0.0074266188
   10    7    2   10        0.0083762256
   10    8    2    4        0.0156085104
   10    8    2    5       -0.0036700134
   10    9    2    4        0.0036700134
   10    9    2    5        0.0156085104
   10   10    2    2        0.4827265331
   10   10    2    7        0.1214454362
   10    1    3    1        0.0302077082
   10    1    3    3       -0.0338503673
   10    1    3    6       -0.0131629655
   10    1    3   10       -0.0427541133
   10    2    3    2        0.0035528804
   10    2    3    7        0.0036424878
   10    3    3    1       -0.0939923215
   10    3    3    3        0.1377216345
   10    3    3    6        0.0284561988
   10    3    3   10        0.1139826049
   10    4    3    4        0.0022624256
   10    5    3    5        0.0022624256
   10    6    3    1       -0.0197458030
   10    6    3    3        0.0247147220
   10    6    3    6        0.0083189615
   10    6    3   10        0.0260102996
   10    7    3    2        0.0283476018
   10    7    3    7        0.0246273303
   10    8    3    8        0.0005940611
   10    9    3    9        0.0005940611
   10   10    3    1       -0.1511767283
   10   10    3    3        0.4929216094
   10   10    3    6        0.0519561626
   10   10    3   10        0.1782242344
   10    1    4    4        0.0115390865
   10    2    4    8        0.0169097710
   10    2    4    9        0.0039759775
   10    3    4    4        0.1103299009
   10    4    4    1        0.0345258489
   10    4    4    3        0.0022624439
   10    4    4    6       -0.0202643993
   10    4    4   10        0.0258343285
   10    6    4    4        0.0005925125
   10    7    4    8       -0.0105210343
   10    7    4    9       -0.0024738002
   10    8    4    2        0.0156085045
   10    8    4    7       -0.0012123097
   10    9    4    2        0.0036700120
   10    9    4    7       -0.0002850492
   10   10    4    4        0.4793891382
   10    1    5    5        0.0115390865
   10    2    5    8       -0.0039759775
   10    2    5    9        0.0169097710
   10    3    5    5        0.1103299009
   10    5    5    1        0.0345258489
   10    5    5    3        0.0022624439
   10    5    5    6       -0.0202643993
   10    5    5   10        0.0258343285
   10    6    5    5        0.0005925125
   10    7    5    8        0.0024738002
   10    7    5    9       -0.0105210343
   10    8    5    2       -0.0036700120
   10    8    5    7        0.0002850492
   10    9    5    2        0.0156085045
   10    9    5    7       -0.0012123097
   10   10    5    5        0.4793891382
   10    1    6    1        0.0063447550
   10    1    6    3       -0.0131622723
   10    1    6    6        0.0068249195
   10    1    6   10       -0.0175075175
   10    2    6    2        0.0163692684
   10    2    6    7        0.0035139527
   10    3    6    1       -0.0130893061
   10    3    6    3        0.0284561958
   10    3    6    6        0.1197961545
   10    3    6   10        0.0260102996
   10    4    6    4       -0.0202643973
   10    5    6    5       -0.0202643973
   10    6    6    1        0.0144762967
   10    6    6    3        0.0083189665
   10    6    6    6        0.0225153707
   10    6    6   10        0.0208633010
   10    7    6    2       -0.0074266206
   10    7    6    7       -0.0148903626
   10    8    6    8        0.0052400629
   10    9    6    9        0.0052400629
   10   10    6    1       -0.0080178991
   10   10    6    3        0.0519561626
   10   10    6    6        0.5011298811
   10   10    6   10        0.0317039810
   10    1    7    2       -0.0209229929
   10    1    7    7       -0.0266103182
   10    2    7    1       -0.0040762835
   10    2    7    3        0.0036424828
   10    2    7    6        0.0035139500
   10    2    7   10        0.0083762256
   10    3    7    2        0.0779043890
   10    3    7    7        0.1364725784
   10    4    7    8       -0.0012389013
   10    4    7    9       -0.0002913016
   10    5    7    8        0.0002913016
   10    5    7    9       -0.0012389013
   10    6    7    2        0.0154865251
   10    6    7    7        0.0244873591
   10    7    7    1       -0.0372065816
   10    7    7    3        0.0246273514
   10    7    7    6       -0.0148903806
   10    7    7   10        0.0358606289
   10    8    7    4       -0.0012123203
   10    8    7    5        0.0002850516
   10    9    7    4       -0.0002850516
   10    9    7    5       -0.0012123203
   10   10    7    2        0.1214454362
   10   10    7    7        0.5111532740
   10    1    8    8        0.0145106024
   10    2    8    4        0.0169097733
   10    2    8    5       -0.0039759780
   10    3    8    8        0.1057985723
   10    4    8    2        0.0284697199
   10    4    8    7       -0.0012388876
   10    5    8    2       -0.0066940566
   10    5    8    7        0.0002912984
   10    6    8    8        0.0145683724
   10    7    8    4       -0.0105210311
   10    7    8    5        0.0024737995
   10    8    8    1        0.0210051576
   10    8    8    3        0.0005940664
   10    8    8    6        0.0052400616
   10    8    8   10        0.0140547691
   10   10    8    8        0.4812699227
   10    1    9    9        0.0145106024
   10    2    9    4        0.0039759780
   10    2    9    5        0.0169097733
   10    3    9    9        0.1057985723
   10    4    9    2        0.0066940566
   10    4    9    7       -0.0002912984
   10    5    9    2        0.0284697199
   10    5    9    7       -0.0012388876
   10    6    9    9        0.0145683724
   10    7    9    4       -0.0024737995
   10    7    9    5       -0.0105210311
   10    9    9    1        0.0210051576
   10    9    9    3        0.0005940664
   10    9    9    6        0.0052400616
   10    9    9   10        0.0140547691
   10   10    9    9        0.4812699227
   10    1   10    1        0.0403895319
   10    1   10    3       -0.0426948781
   10    1   10    6       -0.0175111239
   10    1   10   10       -0.0462649109
   10    2   10    2        0.0165571103
   10    2   10    7        0.0083762283
   10    3   10    1       -0.0426948781
   10    3   10    3        0.1139825963
   10    3   10    6        0.0260102913
   10    3   10   10        0.1782242344
   10    4   10    4        0.0258344084
   10    5   10    5        0.0258344084
   10    6   10    1       -0.0175111239
   10    6   10    3        0.0260102913
   10    6   10    6        0.0208633467
   10    6   10   10        0.0317039810
   10    7   10    2        0.0083762283
   10    7   10    7        0.0358606692
   10    8   10    8        0.0140548071
   10    9   10    9        0.0140548071
   10   10   10    1       -0.0462649109
   10   10   10    3        0.1782242344
   10   10   10    6        0.0317039810
   10   10   10   10        0.5597715339
 end_two_electron_integrals

 Parallel integral file used      20 records with       0 large values


 Task  times  cpu:      139.0s     wall:      141.8s


                                NWChem Input Module
                                -------------------


 Summary of allocated global arrays
-----------------------------------
  No active global arrays


MA_summarize_allocated_blocks: starting scan ...
MA_summarize_allocated_blocks: scan completed: 0 heap blocks, 0 stack blocks
MA usage statistics:

	allocation statistics:
					      heap	     stack
					      ----	     -----
	current number of blocks	         0	         0
	maximum number of blocks	        18	        42
	current total bytes		         0	         0
	maximum total bytes		  51983048	9994007128
	maximum total K-bytes		     51984	   9994008
	maximum total M-bytes		        52	      9995


                                     CITATION
                                     --------
                Please cite the following reference when publishing
                           results obtained with NWChem:

          E. Apra, E. J. Bylaska, W. A. de Jong, N. Govind, K. Kowalski,
       T. P. Straatsma, M. Valiev, H. J. J. van Dam, Y. Alexeev, J. Anchell,
       V. Anisimov, F. W. Aquino, R. Atta-Fynn, J. Autschbach, N. P. Bauman,
     J. C. Becca, D. E. Bernholdt, K. Bhaskaran-Nair, S. Bogatko, P. Borowski,
         J. Boschen, J. Brabec, A. Bruner, E. Cauet, Y. Chen, G. N. Chuev,
      C. J. Cramer, J. Daily, M. J. O. Deegan, T. H. Dunning Jr., M. Dupuis,
   K. G. Dyall, G. I. Fann, S. A. Fischer, A. Fonari, H. Fruchtl, L. Gagliardi,
      J. Garza, N. Gawande, S. Ghosh, K. Glaesemann, A. W. Gotz, J. Hammond,
       V. Helms, E. D. Hermes, K. Hirao, S. Hirata, M. Jacquelin, L. Jensen,
   B. G. Johnson, H. Jonsson, R. A. Kendall, M. Klemm, R. Kobayashi, V. Konkov,
      S. Krishnamoorthy, M. Krishnan, Z. Lin, R. D. Lins, R. J. Littlefield,
      A. J. Logsdail, K. Lopata, W. Ma, A. V. Marenich, J. Martin del Campo,
   D. Mejia-Rodriguez, J. E. Moore, J. M. Mullin, T. Nakajima, D. R. Nascimento,
    J. A. Nichols, P. J. Nichols, J. Nieplocha, A. Otero-de-la-Roza, B. Palmer,
    A. Panyala, T. Pirojsirikul, B. Peng, R. Peverati, J. Pittner, L. Pollack,
   R. M. Richard, P. Sadayappan, G. C. Schatz, W. A. Shelton, D. W. Silverstein,
   D. M. A. Smith, T. A. Soares, D. Song, M. Swart, H. L. Taylor, G. S. Thomas,
            V. Tipparaju, D. G. Truhlar, K. Tsemekhman, T. Van Voorhis,
      A. Vazquez-Mayagoitia, P. Verma, O. Villa, A. Vishnu, K. D. Vogiatzis,
        D. Wang, J. H. Weare, M. J. Williamson, T. L. Windus, K. Wolinski,
        A. T. Wong, Q. Wu, C. Yang, Q. Yu, M. Zacharias, Z. Zhang, Y. Zhao,
                                and R. J. Harrison
                        "NWChem: Past, present, and future
                         J. Chem. Phys. 152, 184102 (2020)
                               doi:10.1063/5.0004997

                                      AUTHORS
                                      -------
  E. Apra, E. J. Bylaska, N. Govind, K. Kowalski, M. Valiev, D. Mejia-Rodriguez,
       A. Kunitsa, N. P. Bauman, A. Panyala, W. A. de Jong, T. P. Straatsma,
        H. J. J. van Dam, D. Wang, T. L. Windus, J. Hammond, J. Autschbach,
    K. Bhaskaran-Nair, J. Brabec, K. Lopata, S. A. Fischer, S. Krishnamoorthy,
     M. Jacquelin, W. Ma, M. Klemm, O. Villa, Y. Chen, V. Anisimov, F. Aquino,
    S. Hirata, M. T. Hackler, Eric Hermes, L. Jensen, J. E. Moore, J. C. Becca,
      V. Konjkov, T. Risthaus, M. Malagoli, A. Marenich, A. Otero-de-la-Roza,
        J. Mullin, P. Nichols, R. Peverati, J. Pittner, Y. Zhao, P.-D. Fan,
        A. Fonari, M. J. Williamson, R. J. Harrison, J. R. Rehr, M. Dupuis,
     D. Silverstein, D. M. A. Smith, J. Nieplocha, V. Tipparaju, M. Krishnan,
     B. E. Van Kuiken, A. Vazquez-Mayagoitia, M. Swart, Q. Wu, T. Van Voorhis,
     A. A. Auer, M. Nooijen, L. D. Crosby, E. Brown, G. Cisneros, G. I. Fann,
   H. Fruchtl, J. Garza, K. Hirao, R. A. Kendall, J. A. Nichols, K. Tsemekhman,
    K. Wolinski, J. Anchell, D. E. Bernholdt, P. Borowski, T. Clark, D. Clerc,
   H. Dachsel, M. J. O. Deegan, K. Dyall, D. Elwood, E. Glendening, M. Gutowski,
   A. C. Hess, J. Jaffe, B. G. Johnson, J. Ju, R. Kobayashi, R. Kutteh, Z. Lin,
   R. Littlefield, X. Long, B. Meng, T. Nakajima, S. Niu, L. Pollack, M. Rosing,
   K. Glaesemann, G. Sandrone, M. Stave, H. Taylor, G. Thomas, J. H. van Lenthe,
                               A. T. Wong, Z. Zhang.

 Total times  cpu:      143.6s     wall:      148.1s
