 argument  1 = input.nw
  NWChem w/ OpenMP: maximum threads =    1



============================== echo of input deck ==============================
 echo
 start H2
 title "H2"

 memory total 24 gb

 geometry units bohr
 symmetry c1
        H  0.00000000  0.00000000  0.00000000
        H  0.00000000  3.40  0.00000000
 end

 basis
   * library cc-pVQZ
 end

 mcscf
   active  10
   actelec 2
   multiplicity 1
   maxiter 40
   vectors input H2.mos
   vectors output H2.mos
 end

 task mcscf

 scf
   vectors input H2.mos
   vectors output H2-3.40.mos
   noscf
 end

 tce
   2eorb
   2emet 13
   ccsd
   maxiter 300
   lshift 0.8
 end

# set tce:print_integrals T
# set tce:qorb 10
# set tce:qela 1
# set tce:qelb 1

 set tce:qducc T
 set tce:nactv 9
 set tce:nonhf T
 set tce:ducc_model 6

 set tce:printtol 0.02

 task tce
================================================================================


                                         
                                         


             Northwest Computational Chemistry Package (NWChem) 7.0.1
             --------------------------------------------------------


                    Environmental Molecular Sciences Laboratory
                       Pacific Northwest National Laboratory
                                Richland, WA 99352

                              Copyright (c) 1994-2020
                       Pacific Northwest National Laboratory
                            Battelle Memorial Institute

             NWChem is an open-source computational chemistry package
                        distributed under the terms of the
                      Educational Community License (ECL) 2.0
             A copy of the license is included with this distribution
                              in the LICENSE.TXT file

                                  ACKNOWLEDGMENT
                                  --------------

            This software and its documentation were developed at the
            EMSL at Pacific Northwest National Laboratory, a multiprogram
            national laboratory, operated for the U.S. Department of Energy
            by Battelle under Contract Number DE-AC05-76RL01830. Support
            for this work was provided by the Department of Energy Office
            of Biological and Environmental Research, Office of Basic
            Energy Sciences, and the Office of Advanced Scientific Computing.


           Job information
           ---------------

    hostname        = WE46210
    program         = /home/baum612/code/nwchem/bin/LINUX64/nwchem
    date            = Sat Nov 11 01:20:38 2023

    compiled        = Mon_Nov_06_10:06:57_2023
    source          = /home/baum612/code/nwchem
    nwchem branch   = 7.0.0
    nwchem revision = nwchem_on_git-4191-g39d87d64de
    ga revision     = 5.8.1
    use scalapack   = F
    input           = input.nw
    prefix          = H2.
    data base       = ./H2.db
    status          = startup
    nproc           =        1
    time left       =     -1s



           Memory information
           ------------------

    heap     =  805306362 doubles =   6144.0 Mbytes
    stack    =  805306367 doubles =   6144.0 Mbytes
    global   = 1610612736 doubles =  12288.0 Mbytes (distinct from heap & stack)
    total    = 3221225465 doubles =  24576.0 Mbytes
    verify   = yes
    hardfail = no 


           Directory information
           ---------------------

  0 permanent = .
  0 scratch   = .




                                NWChem Input Module
                                -------------------


                                        H2
                                        --
 Turning off AUTOSYM since
 SYMMETRY directive was detected!


          ------
          auto-z
          ------
     1 autoz failed with cvr_scaling = 1.2 changing to 1.3
     2 autoz failed with cvr_scaling = 1.3 changing to 1.4
     3 autoz failed with cvr_scaling = 1.4 changing to 1.5
     4 autoz failed with cvr_scaling = 1.5 changing to 1.6
     5 autoz failed with cvr_scaling = 1.6 changing to 1.7

 AUTOZ failed to generate good internal coordinates.
 Cartesian coordinates will be used in optimizations.



                             Geometry "geometry" -> ""
                             -------------------------

 Output coordinates in a.u. (scale by  1.000000000 to convert to a.u.)

  No.       Tag          Charge          X              Y              Z
 ---- ---------------- ---------- -------------- -------------- --------------
    1 H                    1.0000     0.00000000    -1.70000000     0.00000000
    2 H                    1.0000     0.00000000     1.70000000     0.00000000

      Atomic Mass 
      ----------- 

      H                  1.007825


 Effective nuclear repulsion energy (a.u.)       0.2941176471

            Nuclear Dipole moment (a.u.) 
            ----------------------------
        X                 Y               Z
 ---------------- ---------------- ----------------
     0.0000000000     0.0000000000     0.0000000000


            XYZ format geometry
            -------------------
     2
 geometry
 H                     0.00000000    -0.89960132     0.00000000
 H                     0.00000000     0.89960132     0.00000000



 Summary of "ao basis" -> "" (cartesian)
 ------------------------------------------------------------------------------
       Tag                 Description            Shells   Functions and Types
 ---------------- ------------------------------  ------  ---------------------
 *                          cc-pVQZ                   on all atoms 


                      Basis "ao basis" -> "ao basis" (cartesian)
                      -----
  H (Hydrogen)
  ------------
            Exponent  Coefficients 
       -------------- ---------------------------------------------------------
  1 S  8.26400000E+01  0.002006
  1 S  1.24100000E+01  0.015343
  1 S  2.82400000E+00  0.075579

  2 S  7.97700000E-01  1.000000

  3 S  2.58100000E-01  1.000000

  4 S  8.98900000E-02  1.000000

  5 P  2.29200000E+00  1.000000

  6 P  8.38000000E-01  1.000000

  7 P  2.92000000E-01  1.000000

  8 D  2.06200000E+00  1.000000

  9 D  6.62000000E-01  1.000000

 10 F  1.39700000E+00  1.000000



 Summary of "ao basis" -> "ao basis" (cartesian)
 ------------------------------------------------------------------------------
       Tag                 Description            Shells   Functions and Types
 ---------------- ------------------------------  ------  ---------------------
 H                          cc-pVQZ                 10       35   4s3p2d1f



                            NWChem Direct MCSCF Module
                            --------------------------


                                        H2


     -----------------------------------
       Basis functions:             70
       Inactive shells:              0
       Active shells:               10
       Active electrons:             2
       Symmetry:                    a       
       Multiplicity:                 1
       Orbital rotations:          600
     -----------------------------------

     -----------------------------------
       E2 extrapolation:             F
       Conjugacy:                    T
       Micro CI relax:               T
       Canonical orbitals:           T
       Maximum iterations:          40
       Converge threshold:    1.00E-04
       Conjugacy resets:            20
       Initial levelshift:        0.10
     -----------------------------------

 Loading old vectors from job with title :

H2


   input molecular orbitals = ./H2.mos
  output molecular orbtials = ./H2.mos

       No. of determinants:           100


  Starting Orbital Energies
    -0.411299    -0.091598    -0.001518    -0.001147    -0.001147    -0.000153
    -0.000082    -0.000078    -0.000078    -0.000036     0.480563     0.815510
     1.037728     1.404381     1.404381     1.674593     1.674593     1.869928
     1.890372     1.890372     2.028153     2.028153     2.154165     2.154165
     2.255862     2.477577     2.477577     2.936863     2.980675     3.278469
     4.393154     4.393154     4.452315     4.452315     4.525055     4.664515
     5.813963     5.885494     5.885494     6.013841     6.013841     6.062544
     6.062544     6.071164     6.071164     6.123416     6.123416     6.354036
     6.354036     6.949615     8.063211     8.063211     8.097658     8.097658
     8.177814     8.177814     8.317225     8.443664     8.443664     9.146240
     9.623920     9.706211     9.706211     9.716981     9.738499     9.738499
     9.969895     9.972347    22.696659    23.165546

  Orbital Symmetry Irreps
a    a    a    a    a    a    a    a    a    a    a    a    a    a    a   
a    a    a    a    a    a    a    a    a    a    a    a    a    a    a   
a    a    a    a    a    a    a    a    a    a    a    a    a    a    a   
a    a    a    a    a    a    a    a    a    a    a    a    a    a    a   
a    a    a    a    a    a    a    a    a    a   

 Integral file          = ./H2.aoints.0
 Record size in doubles =  65536        No. of integs per rec  =  43688
 Max. records in memory =     99        Max. records in file   = 280150
 No. of bits per label  =      8        No. of bits per value  =     64


 #quartets = 2.213D+04 #integrals = 8.468D+05 #direct =  0.0% #cached =100.0%




          %%%%% MacroIteration   1 %%%%%


          Number of sigma calls:       13
                       o<<<<< (aa):             0.00
                       o<<<<< (bb):             0.00
                       o<<<<< (ab):             0.01
                       o<<<<< (total)           0.01
                       o<<<<< (aa) ff           0.00
                       o<<<<< (aa) gop          0.00
                       o<<<<< (aa) dot          0.00
                       o<<<<< (ab) str          0.00
                       o<<<<< (ab) gath         0.00
                       o<<<<< (ab) dotab        0.00
                       o<<<<< (ab) scat         0.00
                       o<<<<< (ab) sync         0.00
                       o<<<<< Density           0.00
                       o<<<<< Density one       0.00
                       o<<<<< Density two       0.00
                       o<<<<< Density ab        0.00
                       o<<<<< Spin adapt        0.00
                       o<<<<< Symm adapt        0.00

                       o<<<<< (ab) max sync:      0.00

           >>>| Valence CI:             -1.329110046514
           >>>| MCSCF energy:           -1.034992399455
           >>>| Gradient norm:          0.308502921D-02
     --- Warning:  424 Hessian diagonals < 0.05 ---

                              ----- Line search ------

        step       energy         lsg     num-lsg   num-lsh   lsrat    time
      ------- ---------------- --------- --------- --------- ------- --------
       0.0000      -1.03499240 -1.77D-06  0.00D+00  0.00D+00 0.0D+00      0.5

          Number of sigma calls:       12
                       o<<<<< (aa):             0.00
                       o<<<<< (bb):             0.00
                       o<<<<< (ab):             0.02
                       o<<<<< (total)           0.02
                       o<<<<< (aa) ff           0.00
                       o<<<<< (aa) gop          0.00
                       o<<<<< (aa) dot          0.00
                       o<<<<< (ab) str          0.00
                       o<<<<< (ab) gath         0.00
                       o<<<<< (ab) dotab        0.00
                       o<<<<< (ab) scat         0.00
                       o<<<<< (ab) sync         0.00
                       o<<<<< Density           0.00
                       o<<<<< Density one       0.00
                       o<<<<< Density two       0.00
                       o<<<<< Density ab        0.00
                       o<<<<< Spin adapt        0.00
                       o<<<<< Symm adapt        0.00

                       o<<<<< (ab) max sync:      0.00
       1.0000      -1.03499354 -5.15D-07 -5.16D-07  1.26D-06 2.9D-01      0.7

          Number of sigma calls:       11
                       o<<<<< (aa):             0.00
                       o<<<<< (bb):             0.00
                       o<<<<< (ab):             0.01
                       o<<<<< (total)           0.02
                       o<<<<< (aa) ff           0.00
                       o<<<<< (aa) gop          0.00
                       o<<<<< (aa) dot          0.00
                       o<<<<< (ab) str          0.00
                       o<<<<< (ab) gath         0.00
                       o<<<<< (ab) dotab        0.00
                       o<<<<< (ab) scat         0.00
                       o<<<<< (ab) sync         0.00
                       o<<<<< Density           0.00
                       o<<<<< Density one       0.00
                       o<<<<< Density two       0.00
                       o<<<<< Density ab        0.00
                       o<<<<< Spin adapt        0.00
                       o<<<<< Symm adapt        0.00

                       o<<<<< (ab) max sync:      0.00
       1.4094      -1.03499365  5.43D-10  5.19D-10  1.26D-06 3.1D-04      0.9
     --- Orbitals canonicalized ---



          %%%%% MacroIteration   2 %%%%%


          Number of sigma calls:       13
                       o<<<<< (aa):             0.00
                       o<<<<< (bb):             0.00
                       o<<<<< (ab):             0.01
                       o<<<<< (total)           0.01
                       o<<<<< (aa) ff           0.00
                       o<<<<< (aa) gop          0.00
                       o<<<<< (aa) dot          0.00
                       o<<<<< (ab) str          0.00
                       o<<<<< (ab) gath         0.00
                       o<<<<< (ab) dotab        0.00
                       o<<<<< (ab) scat         0.00
                       o<<<<< (ab) sync         0.00
                       o<<<<< Density           0.00
                       o<<<<< Density one       0.00
                       o<<<<< Density two       0.00
                       o<<<<< Density ab        0.00
                       o<<<<< Spin adapt        0.00
                       o<<<<< Symm adapt        0.00

                       o<<<<< (ab) max sync:      0.00

           >>>| Valence CI:             -1.329111297001
           >>>| MCSCF energy:           -1.034993649942
           >>>| Gradient norm:          0.100674120D-02
     --- Warning:  424 Hessian diagonals < 0.05 ---
     --- Conjugacy reset ---

                              ----- Line search ------

        step       energy         lsg     num-lsg   num-lsh   lsrat    time
      ------- ---------------- --------- --------- --------- ------- --------
       0.0000      -1.03499365 -1.73D-07  0.00D+00  0.00D+00 0.0D+00      1.3

          Number of sigma calls:       10
                       o<<<<< (aa):             0.00
                       o<<<<< (bb):             0.00
                       o<<<<< (ab):             0.00
                       o<<<<< (total)           0.01
                       o<<<<< (aa) ff           0.00
                       o<<<<< (aa) gop          0.00
                       o<<<<< (aa) dot          0.00
                       o<<<<< (ab) str          0.00
                       o<<<<< (ab) gath         0.00
                       o<<<<< (ab) dotab        0.00
                       o<<<<< (ab) scat         0.00
                       o<<<<< (ab) sync         0.00
                       o<<<<< Density           0.00
                       o<<<<< Density one       0.00
                       o<<<<< Density two       0.00
                       o<<<<< Density ab        0.00
                       o<<<<< Spin adapt        0.00
                       o<<<<< Symm adapt        0.00

                       o<<<<< (ab) max sync:      0.00
       1.0000      -1.03499376 -5.13D-08 -5.13D-08  1.22D-07 3.0D-01      1.6

          Number of sigma calls:       10
                       o<<<<< (aa):             0.00
                       o<<<<< (bb):             0.00
                       o<<<<< (ab):             0.01
                       o<<<<< (total)           0.01
                       o<<<<< (aa) ff           0.00
                       o<<<<< (aa) gop          0.00
                       o<<<<< (aa) dot          0.00
                       o<<<<< (ab) str          0.00
                       o<<<<< (ab) gath         0.00
                       o<<<<< (ab) dotab        0.00
                       o<<<<< (ab) scat         0.00
                       o<<<<< (ab) sync         0.00
                       o<<<<< Density           0.00
                       o<<<<< Density one       0.00
                       o<<<<< Density two       0.00
                       o<<<<< Density ab        0.00
                       o<<<<< Spin adapt        0.00
                       o<<<<< Symm adapt        0.00

                       o<<<<< (ab) max sync:      0.00
       1.4216      -1.03499377  4.65D-11  4.38D-11  1.22D-07 2.7D-04      1.7



          %%%%% MacroIteration   3 %%%%%


          Number of sigma calls:        1
                       o<<<<< (aa):             0.00
                       o<<<<< (bb):             0.00
                       o<<<<< (ab):             0.00
                       o<<<<< (total)           0.00
                       o<<<<< (aa) ff           0.00
                       o<<<<< (aa) gop          0.00
                       o<<<<< (aa) dot          0.00
                       o<<<<< (ab) str          0.00
                       o<<<<< (ab) gath         0.00
                       o<<<<< (ab) dotab        0.00
                       o<<<<< (ab) scat         0.00
                       o<<<<< (ab) sync         0.00
                       o<<<<< Density           0.00
                       o<<<<< Density one       0.00
                       o<<<<< Density two       0.00
                       o<<<<< Density ab        0.00
                       o<<<<< Spin adapt        0.00
                       o<<<<< Symm adapt        0.00

                       o<<<<< (ab) max sync:      0.00

           >>>| Valence CI:             -1.329111419929
           >>>| MCSCF energy:           -1.034993772870
           >>>| Gradient norm:          0.398929968D-03
     --- Warning:  424 Hessian diagonals < 0.05 ---

                              ----- Line search ------

        step       energy         lsg     num-lsg   num-lsh   lsrat    time
      ------- ---------------- --------- --------- --------- ------- --------
       0.0000      -1.03499377 -1.45D-08  0.00D+00  0.00D+00 0.0D+00      1.8

          Number of sigma calls:        7
                       o<<<<< (aa):             0.00
                       o<<<<< (bb):             0.00
                       o<<<<< (ab):             0.01
                       o<<<<< (total)           0.01
                       o<<<<< (aa) ff           0.00
                       o<<<<< (aa) gop          0.00
                       o<<<<< (aa) dot          0.00
                       o<<<<< (ab) str          0.00
                       o<<<<< (ab) gath         0.00
                       o<<<<< (ab) dotab        0.00
                       o<<<<< (ab) scat         0.00
                       o<<<<< (ab) sync         0.00
                       o<<<<< Density           0.00
                       o<<<<< Density one       0.00
                       o<<<<< Density two       0.00
                       o<<<<< Density ab        0.00
                       o<<<<< Spin adapt        0.00
                       o<<<<< Symm adapt        0.00

                       o<<<<< (ab) max sync:      0.00
       1.0000      -1.03499378 -3.75D-09 -3.75D-09  1.08D-08 2.6D-01      2.0

          Number of sigma calls:        7
                       o<<<<< (aa):             0.00
                       o<<<<< (bb):             0.00
                       o<<<<< (ab):             0.00
                       o<<<<< (total)           0.00
                       o<<<<< (aa) ff           0.00
                       o<<<<< (aa) gop          0.00
                       o<<<<< (aa) dot          0.00
                       o<<<<< (ab) str          0.00
                       o<<<<< (ab) gath         0.00
                       o<<<<< (ab) dotab        0.00
                       o<<<<< (ab) scat         0.00
                       o<<<<< (ab) sync         0.00
                       o<<<<< Density           0.00
                       o<<<<< Density one       0.00
                       o<<<<< Density two       0.00
                       o<<<<< Density ab        0.00
                       o<<<<< Spin adapt        0.00
                       o<<<<< Symm adapt        0.00

                       o<<<<< (ab) max sync:      0.00
       1.3479      -1.03499378  1.14D-13  1.21D-13  1.08D-08 7.9D-06      2.1



          %%%%% MacroIteration   4 %%%%%


          Number of sigma calls:        1
                       o<<<<< (aa):             0.00
                       o<<<<< (bb):             0.00
                       o<<<<< (ab):             0.00
                       o<<<<< (total)           0.00
                       o<<<<< (aa) ff           0.00
                       o<<<<< (aa) gop          0.00
                       o<<<<< (aa) dot          0.00
                       o<<<<< (ab) str          0.00
                       o<<<<< (ab) gath         0.00
                       o<<<<< (ab) dotab        0.00
                       o<<<<< (ab) scat         0.00
                       o<<<<< (ab) sync         0.00
                       o<<<<< Density           0.00
                       o<<<<< Density one       0.00
                       o<<<<< Density two       0.00
                       o<<<<< Density ab        0.00
                       o<<<<< Spin adapt        0.00
                       o<<<<< Symm adapt        0.00

                       o<<<<< (ab) max sync:      0.00

           >>>| Valence CI:             -1.329111429731
           >>>| MCSCF energy:           -1.034993782672
           >>>| Gradient norm:          0.142789030D-03
     --- Warning:  424 Hessian diagonals < 0.05 ---

                              ----- Line search ------

        step       energy         lsg     num-lsg   num-lsh   lsrat    time
      ------- ---------------- --------- --------- --------- ------- --------
       0.0000      -1.03499378 -1.13D-08  0.00D+00  0.00D+00 0.0D+00      2.3

          Number of sigma calls:        8
                       o<<<<< (aa):             0.00
                       o<<<<< (bb):             0.00
                       o<<<<< (ab):             0.01
                       o<<<<< (total)           0.01
                       o<<<<< (aa) ff           0.00
                       o<<<<< (aa) gop          0.00
                       o<<<<< (aa) dot          0.00
                       o<<<<< (ab) str          0.00
                       o<<<<< (ab) gath         0.00
                       o<<<<< (ab) dotab        0.00
                       o<<<<< (ab) scat         0.00
                       o<<<<< (ab) sync         0.00
                       o<<<<< Density           0.00
                       o<<<<< Density one       0.00
                       o<<<<< Density two       0.00
                       o<<<<< Density ab        0.00
                       o<<<<< Spin adapt        0.00
                       o<<<<< Symm adapt        0.00

                       o<<<<< (ab) max sync:      0.00
       1.0000      -1.03499379 -6.21D-09 -6.21D-09  5.04D-09 5.5D-01      2.5

          Number of sigma calls:        9
                       o<<<<< (aa):             0.00
                       o<<<<< (bb):             0.00
                       o<<<<< (ab):             0.01
                       o<<<<< (total)           0.01
                       o<<<<< (aa) ff           0.00
                       o<<<<< (aa) gop          0.00
                       o<<<<< (aa) dot          0.00
                       o<<<<< (ab) str          0.00
                       o<<<<< (ab) gath         0.00
                       o<<<<< (ab) dotab        0.00
                       o<<<<< (ab) scat         0.00
                       o<<<<< (ab) sync         0.00
                       o<<<<< Density           0.00
                       o<<<<< Density one       0.00
                       o<<<<< Density two       0.00
                       o<<<<< Density ab        0.00
                       o<<<<< Spin adapt        0.00
                       o<<<<< Symm adapt        0.00

                       o<<<<< (ab) max sync:      0.00
       2.2310      -1.03499380  5.15D-12  4.67D-12  5.05D-09 4.6D-04      2.7



          %%%%% MacroIteration   5 %%%%%


          Number of sigma calls:        1
                       o<<<<< (aa):             0.00
                       o<<<<< (bb):             0.00
                       o<<<<< (ab):             0.00
                       o<<<<< (total)           0.00
                       o<<<<< (aa) ff           0.00
                       o<<<<< (aa) gop          0.00
                       o<<<<< (aa) dot          0.00
                       o<<<<< (ab) str          0.00
                       o<<<<< (ab) gath         0.00
                       o<<<<< (ab) dotab        0.00
                       o<<<<< (ab) scat         0.00
                       o<<<<< (ab) sync         0.00
                       o<<<<< Density           0.00
                       o<<<<< Density one       0.00
                       o<<<<< Density two       0.00
                       o<<<<< Density ab        0.00
                       o<<<<< Spin adapt        0.00
                       o<<<<< Symm adapt        0.00

                       o<<<<< (ab) max sync:      0.00

           >>>| Valence CI:             -1.329111442280
           >>>| MCSCF energy:           -1.034993795221
           >>>| Gradient norm:          0.752125110D-04




     ==============================
            MCSCF Converged
     ==============================



          Canonical Eigenvalues

              1      
    1   -0.4072
    2   -0.0951
    3   -0.0015
    4   -0.0011
    5   -0.0011
    6   -0.0001
    7   -0.0001
    8   -0.0001
    9   -0.0001
   10   -0.0000
   11    0.4802
   12    0.8123
   13    1.0344
   14    1.4048
   15    1.4048
   16    1.6871
   17    1.6871
   18    1.8554
   19    1.8860
   20    1.8860
   21    2.0324
   22    2.0324
   23    2.1490
   24    2.1490
   25    2.2417
   26    2.4588
   27    2.4588
   28    2.9363
   29    2.9789
   30    3.2442
   31    4.3937
   32    4.3937
   33    4.4529
   34    4.4529
   35    4.5110
   36    4.6621
   37    5.8408
   38    5.9035
   39    5.9035
   40    6.0217
   41    6.0217
   42    6.0630
   43    6.0630
   44    6.0701
   45    6.0701
   46    6.1143
   47    6.1143
   48    6.3161
   49    6.3161
   50    6.8608
   51    8.0560
   52    8.0560
   53    8.0993
   54    8.0993
   55    8.1743
   56    8.1743
   57    8.2902
   58    8.4270
   59    8.4270
   60    9.1161
   61    9.6240
   62    9.7030
   63    9.7030
   64    9.7039
   65    9.7393
   66    9.7393
   67    9.9582
   68    9.9668
   69   22.6656
   70   23.1464


          Converged CI vector

   Index           Coefficient          Config. Occupation
         1          0.91928447          1  1
        12         -0.38917957          2  2
        23         -0.03537030          3  3
        34         -0.03060454          4  4
        45         -0.03060454          5  5

          Number of sigma calls:        1
                       o<<<<< (aa):             0.00
                       o<<<<< (bb):             0.00
                       o<<<<< (ab):             0.00
                       o<<<<< (total)           0.00
                       o<<<<< (aa) ff           0.00
                       o<<<<< (aa) gop          0.00
                       o<<<<< (aa) dot          0.00
                       o<<<<< (ab) str          0.00
                       o<<<<< (ab) gath         0.00
                       o<<<<< (ab) dotab        0.00
                       o<<<<< (ab) scat         0.00
                       o<<<<< (ab) sync         0.00
                       o<<<<< Density           0.00
                       o<<<<< Density one       0.00
                       o<<<<< Density two       0.00
                       o<<<<< Density ab        0.00
                       o<<<<< Spin adapt        0.00
                       o<<<<< Symm adapt        0.00

                       o<<<<< (ab) max sync:      0.00



          Natural orbital occupation numbers

              1      
    1    1.6903
    2    0.3029
    3    0.0025
    4    0.0019
    5    0.0019
    6    0.0002
    7    0.0001
    8    0.0001
    9    0.0001
   10    0.0000


          Number of sigma calls:       13
                       o<<<<< (aa):             0.00
                       o<<<<< (bb):             0.00
                       o<<<<< (ab):             0.01
                       o<<<<< (total)           0.01
                       o<<<<< (aa) ff           0.00
                       o<<<<< (aa) gop          0.00
                       o<<<<< (aa) dot          0.00
                       o<<<<< (ab) str          0.00
                       o<<<<< (ab) gath         0.00
                       o<<<<< (ab) dotab        0.00
                       o<<<<< (ab) scat         0.00
                       o<<<<< (ab) sync         0.00
                       o<<<<< Density           0.00
                       o<<<<< Density one       0.00
                       o<<<<< Density two       0.00
                       o<<<<< Density ab        0.00
                       o<<<<< Spin adapt        0.00
                       o<<<<< Symm adapt        0.00

                       o<<<<< (ab) max sync:      0.00


       Final MCSCF results 
       ------------------- 

       Total MCSCF energy =     -1.034993795221
            Gradient norm =      7.5D-05

    CPU time for solution =      3.1s
   Wall time for solution =      3.6s



                        Analysis of MCSCF natural orbitals
                        ----------------------------------

 Vector    1  Occ=1.690325D+00  E=-4.072255D-01  Symmetry=a
              MO Center=  5.7D-16,  1.7D-13, -4.3D-16, r^2= 1.6D+00
   Bfn.  Coefficient  Atom+Function         Bfn.  Coefficient  Atom+Function  
  ----- ------------  ---------------      ----- ------------  ---------------
     3      0.297333  1 H  s                 38      0.297333  2 H  s          
     4      0.193902  1 H  s                 39      0.193902  2 H  s          
     2      0.156160  1 H  s                 37      0.156160  2 H  s          

 Vector    2  Occ=3.029215D-01  E=-9.508759D-02  Symmetry=a
              MO Center=  2.9D-15, -1.6D-12, -2.7D-15, r^2= 1.7D+00
   Bfn.  Coefficient  Atom+Function         Bfn.  Coefficient  Atom+Function  
  ----- ------------  ---------------      ----- ------------  ---------------
     3      0.436020  1 H  s                 38     -0.436020  2 H  s          
     2      0.225695  1 H  s                 37     -0.225695  2 H  s          
     4      0.186924  1 H  s                 39     -0.186924  2 H  s          

 Vector    3  Occ=2.511794D-03  E=-1.455155D-03  Symmetry=a
              MO Center= -4.1D-14, -8.6D-12,  2.7D-14, r^2= 2.4D+00
   Bfn.  Coefficient  Atom+Function         Bfn.  Coefficient  Atom+Function  
  ----- ------------  ---------------      ----- ------------  ---------------
     4      0.497933  1 H  s                 39      0.497933  2 H  s          
     9     -0.455837  1 H  py                44      0.455837  2 H  py         
    12     -0.329747  1 H  py                47      0.329747  2 H  py         
     3     -0.249890  1 H  s                 38     -0.249890  2 H  s          
    27      0.159949  1 H  fxxy              34      0.159949  1 H  fyzz       

 Vector    4  Occ=1.873275D-03  E=-1.085921D-03  Symmetry=a
              MO Center=  6.8D-14,  1.3D-11, -2.2D-15, r^2= 1.5D+00
   Bfn.  Coefficient  Atom+Function         Bfn.  Coefficient  Atom+Function  
  ----- ------------  ---------------      ----- ------------  ---------------
    11      0.656400  1 H  px                46      0.656400  2 H  px         
     8     -0.445618  1 H  px                43     -0.445618  2 H  px         
    21      0.277439  1 H  dxy               56     -0.277439  2 H  dxy        
    29      0.256839  1 H  fxyy              64      0.256839  2 H  fxyy       
    26      0.201083  1 H  fxxx              31      0.201083  1 H  fxzz       

 Vector    5  Occ=1.873275D-03  E=-1.085921D-03  Symmetry=a
              MO Center= -5.7D-16,  1.3D-11, -3.8D-14, r^2= 1.5D+00
   Bfn.  Coefficient  Atom+Function         Bfn.  Coefficient  Atom+Function  
  ----- ------------  ---------------      ----- ------------  ---------------
    13      0.656400  1 H  pz                48      0.656400  2 H  pz         
    10     -0.445618  1 H  pz                45     -0.445618  2 H  pz         
    24      0.277439  1 H  dyz               59     -0.277439  2 H  dyz        
    33      0.256839  1 H  fyyz              68      0.256839  2 H  fyyz       
    28      0.201083  1 H  fxxz              35      0.201083  1 H  fzzz       

 Vector    6  Occ=2.052745D-04  E=-1.439424D-04  Symmetry=a
              MO Center= -1.0D-14,  9.7D-11,  4.5D-15, r^2= 1.5D+00
   Bfn.  Coefficient  Atom+Function         Bfn.  Coefficient  Atom+Function  
  ----- ------------  ---------------      ----- ------------  ---------------
     2      0.727921  1 H  s                 37      0.727921  2 H  s          
     9      0.360039  1 H  py                44     -0.360039  2 H  py         
    12     -0.338440  1 H  py                47      0.338440  2 H  py         
     3     -0.306495  1 H  s                 38     -0.306495  2 H  s          
     4     -0.273606  1 H  s                 39     -0.273606  2 H  s          

 Vector    7  Occ=8.612635D-05  E=-7.602456D-05  Symmetry=a
              MO Center= -6.2D-11, -1.2D-11,  3.7D-12, r^2= 1.4D+00
   Bfn.  Coefficient  Atom+Function         Bfn.  Coefficient  Atom+Function  
  ----- ------------  ---------------      ----- ------------  ---------------
     8      0.722490  1 H  px                43     -0.722490  2 H  px         
    11      0.363677  1 H  px                46     -0.363677  2 H  px         
    21      0.219301  1 H  dxy               56      0.219301  2 H  dxy        
    26     -0.173163  1 H  fxxx              31     -0.173163  1 H  fxzz       
    61      0.173163  2 H  fxxx              66      0.173163  2 H  fxzz       

 Vector    8  Occ=8.612635D-05  E=-7.341588D-05  Symmetry=a
              MO Center=  1.9D-12, -1.2D-11,  3.3D-11, r^2= 1.4D+00
   Bfn.  Coefficient  Atom+Function         Bfn.  Coefficient  Atom+Function  
  ----- ------------  ---------------      ----- ------------  ---------------
    10      0.722490  1 H  pz                45     -0.722490  2 H  pz         
    13      0.363677  1 H  pz                48     -0.363677  2 H  pz         
    24      0.219301  1 H  dyz               59      0.219301  2 H  dyz        
    28     -0.173163  1 H  fxxz              35     -0.173163  1 H  fzzz       
    63      0.173163  2 H  fxxz              70      0.173163  2 H  fzzz       

 Vector    9  Occ=8.584675D-05  E=-7.341588D-05  Symmetry=a
              MO Center=  6.0D-11,  2.9D-10, -3.6D-11, r^2= 1.8D+00
   Bfn.  Coefficient  Atom+Function         Bfn.  Coefficient  Atom+Function  
  ----- ------------  ---------------      ----- ------------  ---------------
     2      0.658884  1 H  s                 37     -0.658884  2 H  s          
     9      0.606919  1 H  py                44      0.606919  2 H  py         
     3     -0.523488  1 H  s                 38      0.523488  2 H  s          
     4     -0.290172  1 H  s                 39      0.290172  2 H  s          

 Vector   10  Occ=3.208011D-05  E=-3.427252D-05  Symmetry=a
              MO Center= -6.5D-17,  1.6D-09,  2.5D-16, r^2= 2.3D+00
   Bfn.  Coefficient  Atom+Function         Bfn.  Coefficient  Atom+Function  
  ----- ------------  ---------------      ----- ------------  ---------------
     9      2.940707  1 H  py                44     -2.940707  2 H  py         
     3     -1.382953  1 H  s                 38     -1.382953  2 H  s          
    27     -1.238403  1 H  fxxy              34     -1.238403  1 H  fyzz       
    62      1.238403  2 H  fxxy              69      1.238403  2 H  fyzz       
    32     -0.930235  1 H  fyyy              67      0.930235  2 H  fyyy       

 Vector   11  Occ=0.000000D+00  E= 4.802401D-01  Symmetry=a
              MO Center=  3.7D-13,  9.9D-11, -2.2D-13, r^2= 7.5D+00
   Bfn.  Coefficient  Atom+Function         Bfn.  Coefficient  Atom+Function  
  ----- ------------  ---------------      ----- ------------  ---------------
     3      2.727962  1 H  s                 38     -2.727962  2 H  s          
     4     -2.542774  1 H  s                 39      2.542774  2 H  s          
     9      0.726648  1 H  py                44      0.726648  2 H  py         
     2     -0.676206  1 H  s                 37      0.676206  2 H  s          
    12     -0.645944  1 H  py                47     -0.645944  2 H  py         

 Vector   12  Occ=0.000000D+00  E= 8.123341D-01  Symmetry=a
              MO Center= -1.2D-15, -1.2D-11,  1.1D-15, r^2= 5.2D+00
   Bfn.  Coefficient  Atom+Function         Bfn.  Coefficient  Atom+Function  
  ----- ------------  ---------------      ----- ------------  ---------------
     3      3.706075  1 H  s                 38      3.706075  2 H  s          
     4     -1.426822  1 H  s                 39     -1.426822  2 H  s          
     2     -1.178557  1 H  s                 37     -1.178557  2 H  s          
     9      1.032115  1 H  py                44     -1.032115  2 H  py         
    20     -0.575814  1 H  dxx               25     -0.575814  1 H  dzz        

 Vector   13  Occ=0.000000D+00  E= 1.034403D+00  Symmetry=a
              MO Center= -2.2D-12, -2.3D-09,  1.3D-12, r^2= 2.9D+00
   Bfn.  Coefficient  Atom+Function         Bfn.  Coefficient  Atom+Function  
  ----- ------------  ---------------      ----- ------------  ---------------
     3      3.079401  1 H  s                 38     -3.079401  2 H  s          
     9     -2.977755  1 H  py                44     -2.977755  2 H  py         
    12      2.070962  1 H  py                47      2.070962  2 H  py         
    32      1.157189  1 H  fyyy              67      1.157189  2 H  fyyy       
    27      1.119976  1 H  fxxy              34      1.119976  1 H  fyzz       

 Vector   14  Occ=0.000000D+00  E= 1.404791D+00  Symmetry=a
              MO Center= -6.4D-15, -5.6D-11, -1.2D-12, r^2= 3.2D+00
   Bfn.  Coefficient  Atom+Function         Bfn.  Coefficient  Atom+Function  
  ----- ------------  ---------------      ----- ------------  ---------------
    10      5.683489  1 H  pz                45     -5.683489  2 H  pz         
    33     -2.214404  1 H  fyyz              68      2.214404  2 H  fyyz       
    28     -2.187552  1 H  fxxz              35     -2.187552  1 H  fzzz       
    63      2.187552  2 H  fxxz              70      2.187552  2 H  fzzz       
    13     -1.686902  1 H  pz                48      1.686902  2 H  pz         

 Vector   15  Occ=0.000000D+00  E= 1.404791D+00  Symmetry=a
              MO Center=  2.0D-12, -5.7D-11, -1.1D-14, r^2= 3.2D+00
   Bfn.  Coefficient  Atom+Function         Bfn.  Coefficient  Atom+Function  
  ----- ------------  ---------------      ----- ------------  ---------------
     8      5.683489  1 H  px                43     -5.683489  2 H  px         
    29     -2.214404  1 H  fxyy              64      2.214404  2 H  fxyy       
    26     -2.187552  1 H  fxxx              31     -2.187552  1 H  fxzz       
    61      2.187552  2 H  fxxx              66      2.187552  2 H  fxzz       
    11     -1.686902  1 H  px                46      1.686902  2 H  px         

 Vector   16  Occ=0.000000D+00  E= 1.687096D+00  Symmetry=a
              MO Center= -2.0D-14,  3.9D-11,  7.2D-15, r^2= 2.3D+00
   Bfn.  Coefficient  Atom+Function         Bfn.  Coefficient  Atom+Function  
  ----- ------------  ---------------      ----- ------------  ---------------
     8      4.998032  1 H  px                43      4.998032  2 H  px         
    26     -1.975322  1 H  fxxx              31     -1.975322  1 H  fxzz       
    61     -1.975322  2 H  fxxx              66     -1.975322  2 H  fxzz       
    29     -1.921883  1 H  fxyy              64     -1.921883  2 H  fxyy       
    10     -1.799406  1 H  pz                45     -1.799406  2 H  pz         

 Vector   17  Occ=0.000000D+00  E= 1.687096D+00  Symmetry=a
              MO Center=  1.9D-15,  3.9D-11,  5.4D-15, r^2= 2.3D+00
   Bfn.  Coefficient  Atom+Function         Bfn.  Coefficient  Atom+Function  
  ----- ------------  ---------------      ----- ------------  ---------------
    10      4.998032  1 H  pz                45      4.998032  2 H  pz         
    28     -1.975322  1 H  fxxz              35     -1.975322  1 H  fzzz       
    63     -1.975322  2 H  fxxz              70     -1.975322  2 H  fzzz       
    33     -1.921883  1 H  fyyz              68     -1.921883  2 H  fyyz       
     8      1.799406  1 H  px                43      1.799406  2 H  px         

 Vector   18  Occ=0.000000D+00  E= 1.855370D+00  Symmetry=a
              MO Center= -3.3D-13,  9.8D-10,  2.0D-13, r^2= 3.6D+00
   Bfn.  Coefficient  Atom+Function         Bfn.  Coefficient  Atom+Function  
  ----- ------------  ---------------      ----- ------------  ---------------
     9      5.609575  1 H  py                44      5.609575  2 H  py         
    32     -2.130552  1 H  fyyy              67     -2.130552  2 H  fyyy       
    27     -2.107238  1 H  fxxy              34     -2.107238  1 H  fyzz       
    62     -2.107238  2 H  fxxy              69     -2.107238  2 H  fyzz       
     3      2.086905  1 H  s                 38     -2.086905  2 H  s          

 Vector   19  Occ=0.000000D+00  E= 1.885954D+00  Symmetry=a
              MO Center= -3.0D-15,  1.7D-11,  1.6D-15, r^2= 2.0D+00
   Bfn.  Coefficient  Atom+Function         Bfn.  Coefficient  Atom+Function  
  ----- ------------  ---------------      ----- ------------  ---------------
    10      3.322731  1 H  pz                45      3.322731  2 H  pz         
    33     -1.303080  1 H  fyyz              68     -1.303080  2 H  fyyz       
    28     -1.290299  1 H  fxxz              35     -1.290299  1 H  fzzz       
    63     -1.290299  2 H  fxxz              70     -1.290299  2 H  fzzz       
    24     -0.939536  1 H  dyz               59      0.939536  2 H  dyz        

 Vector   20  Occ=0.000000D+00  E= 1.885954D+00  Symmetry=a
              MO Center= -2.5D-15,  1.7D-11,  2.7D-15, r^2= 2.0D+00
   Bfn.  Coefficient  Atom+Function         Bfn.  Coefficient  Atom+Function  
  ----- ------------  ---------------      ----- ------------  ---------------
     8      3.322731  1 H  px                43      3.322731  2 H  px         
    29     -1.303080  1 H  fxyy              64     -1.303080  2 H  fxyy       
    26     -1.290299  1 H  fxxx              31     -1.290299  1 H  fxzz       
    61     -1.290299  2 H  fxxx              66     -1.290299  2 H  fxzz       
    21     -0.939536  1 H  dxy               56      0.939536  2 H  dxy        


 Wrote Lagrangian and 1- and 2-particle density matrices to ./H2.mcpdm


     Multipole analysis of the density
     ---------------------------------

     L   x y z        total        nuclear
     -   - - -        -----        -------
     0   0 0 0     -0.000000      2.000000

     1   1 0 0     -0.000000      0.000000
     1   0 1 0      0.000000      0.000000
     1   0 0 1      0.000000      0.000000

     2   2 0 0     -2.113779      0.000000
     2   1 1 0      0.000000      0.000000
     2   1 0 1      0.000000      0.000000
     2   0 2 0     -1.240471      5.780000
     2   0 1 1     -0.000000      0.000000
     2   0 0 2     -2.113779      0.000000


  Mulliken analysis of the total density
  --------------------------------------

    Atom       Charge   Shell Charges
 -----------   ------   -------------------------------------------------------
    1 H    1     1.00   0.04  0.20  0.47  0.28  0.00 -0.00  0.01  0.00  0.00  0.00
    2 H    1     1.00   0.04  0.20  0.47  0.28  0.00 -0.00  0.01  0.00  0.00  0.00

    Mulliken analysis of the active space density
    ---------------------------------------------

    Atom       Charge   Shell Charges
 -----------   ------   -------------------------------------------------------
    1 H    1     1.00   0.04  0.20  0.47  0.28  0.00 -0.00  0.01  0.00  0.00  0.00
    2 H    1     1.00   0.04  0.20  0.47  0.28  0.00 -0.00  0.01  0.00  0.00  0.00

 Parallel integral file used      20 records with       0 large values


 Task  times  cpu:        3.2s     wall:        3.6s


                                NWChem Input Module
                                -------------------


                                 NWChem SCF Module
                                 -----------------


                                        H2



  ao basis        = "ao basis"
  functions       =    70
  atoms           =     2
  closed shells   =     1
  open shells     =     0
  charge          =   0.00
  wavefunction    = RHF 
  input vectors   = ./H2.mos
  output vectors  = ./H2-3.40.mos
  use symmetry    = F
  symmetry adapt  = F


 Summary of "ao basis" -> "ao basis" (cartesian)
 ------------------------------------------------------------------------------
       Tag                 Description            Shells   Functions and Types
 ---------------- ------------------------------  ------  ---------------------
 H                          cc-pVQZ                 10       35   4s3p2d1f



 Forming initial guess at       3.7s


 Loading old vectors from job with title :

H2


 Starting SCF solution at       3.7s



 ----------------------------------------------
         Quadratically convergent ROHF

 Convergence threshold     :          1.000E-04
 Maximum no. of iterations :           30
 Final Fock-matrix accuracy:          1.000E-07
 ----------------------------------------------


 Integral file          = ./H2.aoints.0
 Record size in doubles =  65536        No. of integs per rec  =  43688
 Max. records in memory =     99        Max. records in file   = 280201
 No. of bits per label  =      8        No. of bits per value  =     64


 #quartets = 2.192D+04 #integrals = 7.931D+05 #direct =  0.0% #cached =100.0%



       Final RHF  results 
       ------------------ 

         Total SCF energy =     -0.948406642284
      One-electron energy =     -1.694599992770
      Two-electron energy =      0.452075703427
 Nuclear repulsion energy =      0.294117647059

        Time for solution =      0.1s


             Final eigenvalues
             -----------------

              1      
    1   -0.4072
    2   -0.0951
    3   -0.0015
    4   -0.0011
    5   -0.0011
    6   -0.0001
    7   -0.0001
    8   -0.0001
    9   -0.0001
   10   -0.0000
   11    0.4802

                       ROHF Final Molecular Orbital Analysis
                       -------------------------------------

 Vector    1  Occ=2.000000D+00  E=-4.072255D-01
              MO Center=  5.7D-16,  1.7D-13, -4.3D-16, r^2= 1.6D+00
   Bfn.  Coefficient  Atom+Function         Bfn.  Coefficient  Atom+Function  
  ----- ------------  ---------------      ----- ------------  ---------------
     3      0.297333  1 H  s                 38      0.297333  2 H  s          
     4      0.193902  1 H  s                 39      0.193902  2 H  s          
     2      0.156160  1 H  s                 37      0.156160  2 H  s          

 Vector    2  Occ=0.000000D+00  E=-9.508759D-02
              MO Center=  2.9D-15, -1.6D-12, -2.7D-15, r^2= 1.7D+00
   Bfn.  Coefficient  Atom+Function         Bfn.  Coefficient  Atom+Function  
  ----- ------------  ---------------      ----- ------------  ---------------
     3      0.436020  1 H  s                 38     -0.436020  2 H  s          
     2      0.225695  1 H  s                 37     -0.225695  2 H  s          
     4      0.186924  1 H  s                 39     -0.186924  2 H  s          

 Vector    3  Occ=0.000000D+00  E=-1.455155D-03
              MO Center= -4.1D-14, -8.6D-12,  2.7D-14, r^2= 2.4D+00
   Bfn.  Coefficient  Atom+Function         Bfn.  Coefficient  Atom+Function  
  ----- ------------  ---------------      ----- ------------  ---------------
     4      0.497933  1 H  s                 39      0.497933  2 H  s          
     9     -0.455837  1 H  py                44      0.455837  2 H  py         
    12     -0.329747  1 H  py                47      0.329747  2 H  py         
     3     -0.249890  1 H  s                 38     -0.249890  2 H  s          
    27      0.159949  1 H  fxxy              34      0.159949  1 H  fyzz       

 Vector    4  Occ=0.000000D+00  E=-1.085921D-03
              MO Center=  6.8D-14,  1.3D-11, -2.2D-15, r^2= 1.5D+00
   Bfn.  Coefficient  Atom+Function         Bfn.  Coefficient  Atom+Function  
  ----- ------------  ---------------      ----- ------------  ---------------
    11      0.656400  1 H  px                46      0.656400  2 H  px         
     8     -0.445618  1 H  px                43     -0.445618  2 H  px         
    21      0.277439  1 H  dxy               56     -0.277439  2 H  dxy        
    29      0.256839  1 H  fxyy              64      0.256839  2 H  fxyy       
    26      0.201083  1 H  fxxx              31      0.201083  1 H  fxzz       

 Vector    5  Occ=0.000000D+00  E=-1.085921D-03
              MO Center= -5.7D-16,  1.3D-11, -3.8D-14, r^2= 1.5D+00
   Bfn.  Coefficient  Atom+Function         Bfn.  Coefficient  Atom+Function  
  ----- ------------  ---------------      ----- ------------  ---------------
    13      0.656400  1 H  pz                48      0.656400  2 H  pz         
    10     -0.445618  1 H  pz                45     -0.445618  2 H  pz         
    24      0.277439  1 H  dyz               59     -0.277439  2 H  dyz        
    33      0.256839  1 H  fyyz              68      0.256839  2 H  fyyz       
    28      0.201083  1 H  fxxz              35      0.201083  1 H  fzzz       

 Vector    6  Occ=0.000000D+00  E=-1.439424D-04
              MO Center= -1.0D-14,  9.7D-11,  4.5D-15, r^2= 1.5D+00
   Bfn.  Coefficient  Atom+Function         Bfn.  Coefficient  Atom+Function  
  ----- ------------  ---------------      ----- ------------  ---------------
     2      0.727921  1 H  s                 37      0.727921  2 H  s          
     9      0.360039  1 H  py                44     -0.360039  2 H  py         
    12     -0.338440  1 H  py                47      0.338440  2 H  py         
     3     -0.306495  1 H  s                 38     -0.306495  2 H  s          
     4     -0.273606  1 H  s                 39     -0.273606  2 H  s          

 Vector    7  Occ=0.000000D+00  E=-7.602456D-05
              MO Center= -6.2D-11, -1.2D-11,  3.7D-12, r^2= 1.4D+00
   Bfn.  Coefficient  Atom+Function         Bfn.  Coefficient  Atom+Function  
  ----- ------------  ---------------      ----- ------------  ---------------
     8      0.722490  1 H  px                43     -0.722490  2 H  px         
    11      0.363677  1 H  px                46     -0.363677  2 H  px         
    21      0.219301  1 H  dxy               56      0.219301  2 H  dxy        
    26     -0.173163  1 H  fxxx              31     -0.173163  1 H  fxzz       
    61      0.173163  2 H  fxxx              66      0.173163  2 H  fxzz       

 Vector    8  Occ=0.000000D+00  E=-7.341588D-05
              MO Center=  1.9D-12, -1.2D-11,  3.3D-11, r^2= 1.4D+00
   Bfn.  Coefficient  Atom+Function         Bfn.  Coefficient  Atom+Function  
  ----- ------------  ---------------      ----- ------------  ---------------
    10      0.722490  1 H  pz                45     -0.722490  2 H  pz         
    13      0.363677  1 H  pz                48     -0.363677  2 H  pz         
    24      0.219301  1 H  dyz               59      0.219301  2 H  dyz        
    28     -0.173163  1 H  fxxz              35     -0.173163  1 H  fzzz       
    63      0.173163  2 H  fxxz              70      0.173163  2 H  fzzz       

 Vector    9  Occ=0.000000D+00  E=-7.341588D-05
              MO Center=  6.0D-11,  2.9D-10, -3.6D-11, r^2= 1.8D+00
   Bfn.  Coefficient  Atom+Function         Bfn.  Coefficient  Atom+Function  
  ----- ------------  ---------------      ----- ------------  ---------------
     2      0.658884  1 H  s                 37     -0.658884  2 H  s          
     9      0.606919  1 H  py                44      0.606919  2 H  py         
     3     -0.523488  1 H  s                 38      0.523488  2 H  s          
     4     -0.290172  1 H  s                 39      0.290172  2 H  s          

 Vector   10  Occ=0.000000D+00  E=-3.427252D-05
              MO Center= -6.5D-17,  1.6D-09,  2.5D-16, r^2= 2.3D+00
   Bfn.  Coefficient  Atom+Function         Bfn.  Coefficient  Atom+Function  
  ----- ------------  ---------------      ----- ------------  ---------------
     9      2.940707  1 H  py                44     -2.940707  2 H  py         
     3     -1.382953  1 H  s                 38     -1.382953  2 H  s          
    27     -1.238403  1 H  fxxy              34     -1.238403  1 H  fyzz       
    62      1.238403  2 H  fxxy              69      1.238403  2 H  fyzz       
    32     -0.930235  1 H  fyyy              67      0.930235  2 H  fyyy       

 Vector   11  Occ=0.000000D+00  E= 4.802401D-01
              MO Center=  3.7D-13,  9.9D-11, -2.2D-13, r^2= 7.5D+00
   Bfn.  Coefficient  Atom+Function         Bfn.  Coefficient  Atom+Function  
  ----- ------------  ---------------      ----- ------------  ---------------
     3      2.727962  1 H  s                 38     -2.727962  2 H  s          
     4     -2.542774  1 H  s                 39      2.542774  2 H  s          
     9      0.726648  1 H  py                44      0.726648  2 H  py         
     2     -0.676206  1 H  s                 37      0.676206  2 H  s          
    12     -0.645944  1 H  py                47     -0.645944  2 H  py         

 Vector   12  Occ=0.000000D+00  E= 8.123341D-01
              MO Center= -1.2D-15, -1.2D-11,  1.1D-15, r^2= 5.2D+00
   Bfn.  Coefficient  Atom+Function         Bfn.  Coefficient  Atom+Function  
  ----- ------------  ---------------      ----- ------------  ---------------
     3      3.706075  1 H  s                 38      3.706075  2 H  s          
     4     -1.426822  1 H  s                 39     -1.426822  2 H  s          
     2     -1.178557  1 H  s                 37     -1.178557  2 H  s          
     9      1.032115  1 H  py                44     -1.032115  2 H  py         
    20     -0.575814  1 H  dxx               25     -0.575814  1 H  dzz        


 center of mass
 --------------
 x =   0.00000000 y =   0.00000000 z =   0.00000000

 moments of inertia (a.u.)
 ------------------
           5.825228500000           0.000000000000           0.000000000000
           0.000000000000           0.000000000000           0.000000000000
           0.000000000000           0.000000000000           5.825228500000

  Mulliken analysis of the total density
  --------------------------------------

    Atom       Charge   Shell Charges
 -----------   ------   -------------------------------------------------------
    1 H    1     1.00   0.04  0.19  0.46  0.31  0.00 -0.00  0.01  0.00  0.00  0.00
    2 H    1     1.00   0.04  0.19  0.46  0.31  0.00 -0.00  0.01  0.00  0.00  0.00

       Multipole analysis of the density wrt the origin
       ------------------------------------------------

     L   x y z        total         open         nuclear
     -   - - -        -----         ----         -------
     0   0 0 0     -0.000000      0.000000      2.000000

     1   1 0 0     -0.000000      0.000000      0.000000
     1   0 1 0     -0.000000      0.000000      0.000000
     1   0 0 1      0.000000      0.000000      0.000000

     2   2 0 0     -2.210992      0.000000      0.000000
     2   1 1 0      0.000000      0.000000      0.000000
     2   1 0 1     -0.000000      0.000000      0.000000
     2   0 2 0     -0.928220      0.000000      5.780000
     2   0 1 1      0.000000      0.000000      0.000000
     2   0 0 2     -2.210992      0.000000      0.000000


 Parallel integral file used      19 records with       0 large values

                   NWChem Extensible Many-Electron Theory Module
                   ---------------------------------------------

              ======================================================
                   This portion of the program was automatically
                  generated by a Tensor Contraction Engine (TCE).
                  The development of this portion of the program
                 and TCE was supported by US Department of Energy,
                Office of Science, Office of Basic Energy Science.
                      TCE is a product of Battelle and PNNL.
              Please cite: S.Hirata, J.Phys.Chem.A 107, 9887 (2003).
              ======================================================

                                        H2


            General Information
            -------------------
      Number of processors :     1
         Wavefunction type : Restricted Hartree-Fock
          No. of electrons :     2
           Alpha electrons :     1
            Beta electrons :     1
           No. of orbitals :   140
            Alpha orbitals :    70
             Beta orbitals :    70
        Alpha frozen cores :     0
         Beta frozen cores :     0
     Alpha frozen virtuals :     0
      Beta frozen virtuals :     0
         Spin multiplicity : singlet 
    Number of AO functions :    70
       Number of AO shells :    20
        Use of symmetry is : off
      Symmetry adaption is : off
         Schwarz screening : 0.10D-09

          Correlation Information
          -----------------------
          Calculation type : Coupled-cluster singles & doubles                           
   Perturbative correction : none                                                        
            Max iterations :      300
        Residual threshold : 0.10D-06
     T(0) DIIS level shift : 0.80D+00
     L(0) DIIS level shift : 0.00D+00
     T(1) DIIS level shift : 0.00D+00
     L(1) DIIS level shift : 0.00D+00
     T(R) DIIS level shift : 0.00D+00
     T(I) DIIS level shift : 0.00D+00
   CC-T/L Amplitude update :  5-th order DIIS
                I/O scheme : Global Array Library
        L-threshold :  0.10D-06
        EOM-threshold :  0.10D-06
 no EOMCCSD initial starts read in
 TCE RESTART OPTIONS
 READ_INT:   F
 WRITE_INT:  F
 READ_TA:    F
 WRITE_TA:   F
 READ_XA:    F
 WRITE_XA:   F
 READ_IN3:   F
 WRITE_IN3:  F
 SLICE:      F
 D4D5:       F
 quantumc:   F
 qrotation:  F
 pwtce:      F
 qducc:      T
 nacto:                         0
 nrotv:                         0
 nrot:                          0

            Memory Information
            ------------------
          Available GA space size is    1610607836 doubles
          Available MA space size is    1610610644 doubles

 Maximum block size        32 doubles

 tile_dim =     23

 Block   Spin    Irrep     Size     Offset   Alpha
 -------------------------------------------------
   1    alpha     a      1 doubles       0       1
   2    beta      a      1 doubles       1       1
   3    alpha     a     23 doubles       2       3
   4    alpha     a     23 doubles      25       4
   5    alpha     a     23 doubles      48       5
   6    beta      a     23 doubles      71       3
   7    beta      a     23 doubles      94       4
   8    beta      a     23 doubles     117       5

 Global array virtual files algorithm will be used

 Parallel file system coherency ......... OK

 Integral file          = ./H2.aoints.0
 Record size in doubles =  65536        No. of integs per rec  =  43688
 Max. records in memory =     99        Max. records in file   = 280201
 No. of bits per label  =      8        No. of bits per value  =     64


 #quartets = 2.213D+04 #integrals = 8.498D+05 #direct =  0.0% #cached =100.0%


 Fock matrix recomputed
 1-e file size   =             4900
 1-e file name   = ./H2.f1
 Cpu & wall time / sec            0.1            0.1
 4-electron integrals stored in orbital form

 v2    file size   =          6102085
 4-index algorithm nr.  13 is used
 imaxsize =       30
 imaxsize ichop =        0
 Cpu & wall time / sec            2.1            2.1
 T1-number-of-tasks                    3

 t1 file size   =               69
 t1 file name   = ./H2.t1
 t1 file handle =       -998
 T2-number-of-boxes                   15

 t2 file size   =             7935
 t2 file name   = ./H2.t2
 t2 file handle =       -996
CCSD iterations
 ---------------------------------------------------------
 Iter          Residuum       Correlation     Cpu    Wall 
 ---------------------------------------------------------
NEW TASK SCHEDULING
CCSD_T1_NTS --- OK
CCSD_T2_NTS --- OK
    1   0.5654845400579  -0.1021809153175     0.1     0.1
    2   0.3018365593604  -0.0625762046379     0.1     0.1
    3   0.1708755535061  -0.0801259723857     0.1     0.1
    4   0.1132778715932  -0.0729786500972     0.1     0.1
    5   0.0785412936108  -0.0793518439307     0.1     0.1
 MICROCYCLE DIIS UPDATE:                    5                    5
    6   0.0256122455563  -0.0795378990983     0.1     0.1
    7   0.0186753458788  -0.0811656843889     0.1     0.1
    8   0.0153895797735  -0.0821060773897     0.1     0.1
    9   0.0128176208288  -0.0829730003393     0.1     0.1
   10   0.0107556842722  -0.0836177514541     0.1     0.1
 MICROCYCLE DIIS UPDATE:                   10                    5
   11   0.0023333708755  -0.0869721048266     0.1     0.1
   12   0.0010888798461  -0.0868791156375     0.1     0.1
   13   0.0006202556841  -0.0868962756484     0.1     0.1
   14   0.0004255257715  -0.0868861653797     0.1     0.1
   15   0.0003144542046  -0.0869029542795     0.1     0.1
 MICROCYCLE DIIS UPDATE:                   15                    5
   16   0.0002066564120  -0.0869147726563     0.1     0.1
   17   0.0001518685483  -0.0869279537433     0.1     0.1
   18   0.0001252219695  -0.0869351875903     0.1     0.1
   19   0.0001034369388  -0.0869424811158     0.1     0.1
   20   0.0000866352359  -0.0869478944683     0.1     0.1
 MICROCYCLE DIIS UPDATE:                   20                    5
   21   0.0000209586058  -0.0869752698373     0.2     0.2
   22   0.0000111347089  -0.0869746415798     0.2     0.2
   23   0.0000071001320  -0.0869747710820     0.2     0.2
   24   0.0000051995150  -0.0869747380543     0.2     0.2
   25   0.0000039508778  -0.0869748720540     0.2     0.2
 MICROCYCLE DIIS UPDATE:                   25                    5
   26   0.0000021890602  -0.0869750813414     0.1     0.1
   27   0.0000014711630  -0.0869752028509     0.1     0.1
   28   0.0000011693457  -0.0869752476752     0.0     0.1
   29   0.0000009502290  -0.0869753076757     0.1     0.1
   30   0.0000007861725  -0.0869753471154     0.1     0.1
 MICROCYCLE DIIS UPDATE:                   30                    5
   31   0.0000002856911  -0.0869755314467     0.1     0.1
   32   0.0000001729343  -0.0869755305194     0.1     0.1
   33   0.0000001207822  -0.0869755367429     0.1     0.1
   34   0.0000000922099  -0.0869755402045     0.1     0.1
 -----------------------------------------------------------------
 Iterations converged
 CCSD correlation energy / hartree =        -0.086975540204514
 CCSD total energy / hartree       =        -1.035382182488086

 Singles contributions

 Doubles contributions
     2a   (alpha)     2a   (beta ) ---     1a   (alpha)     1a   (beta )       -0.4199150553
     3a   (alpha)     3a   (beta ) ---     1a   (alpha)     1a   (beta )       -0.0380079390
     4a   (alpha)     4a   (beta ) ---     1a   (alpha)     1a   (beta )       -0.0329176618
     5a   (alpha)     5a   (beta ) ---     1a   (alpha)     1a   (beta )       -0.0329176618
 Ground state specification:
 exp(T)|Ref>~(1+T)|Ref>
 ------- a(p)+/a(q) strings ----------

 singles norm

 doubles norm

 Reference string
  0.92201006505916805      :(1a)+ (1b)+ |0>

 Singles strings

 Doubles strings
 -0.38716590749908325      :(2a)+ (2b)+ (1b)  (1a)  (1a)+ (1b)+ |0>
 -------------------------------------
 enrep_tce =   0.29411764705882348     
  EHF(total)         =        -0.94840664
  Shift (HFtot-HFA)  =         0.00000000
 ALL OCCUPIED ORBITALS ARE ACTIVE IN DUCC --> NO SHIFT
 Number of active orbitals                   10
 Number of active alpha electrons                    1
 Number of active beta electrons                    1
  nos                     2
  nvs                   138
 noas                     1
 nobs                     1
 nvas                    69
 nvbs                    69
 nactv                     9
 DUCC MODEL =                     6
 NONHF =  T
 F-T1 correlation    =    9.3025942930158540E-006
 V-T1-T1 correlation =    2.0465865096384692E-009
 V-T2 correlation    =   -8.6984844845392886E-002
 Total correlation   =   -8.6975540204513355E-002
 F-T1(Ext) correlation         =   -7.8978890802679519E-007
 V-T1(Ext)-T1(Ext) correlation =    1.6008209639996936E-010
 V-T2(Ext) correlation         =   -1.1471515287219340E-003
 Total Ext correlation         =   -1.1479411575478643E-003
1-BODY TIME =   30.875 SECONDS.
  HHHH TIME =   24.554 SECONDS.
  PPPP TIME =   35.701 SECONDS.
  HHHP TIME =    2.521 SECONDS.
  PPPH TIME =    2.633 SECONDS.
  HPHP TIME =    4.135 SECONDS.
  HHPP TIME =    2.323 SECONDS.
 ONE-BODY UNITARY CHECK
 TWO-BODY UNITARY CHECK
 TWO-BODY ANTISYMMETRY CHECK
 TRANSFORMED ~FOCK~ MATRIX
    1    1        -0.3970630802
    1    3        -0.0004309257
    1    6         0.0514107330
    1   10        -0.0077867434
    2    2         0.0402695662
    2    9         0.1515071969
    3    1        -0.0004309257
    3    3         0.5890564252
    3    6         0.0680862275
    3   10        -0.4514199021
    4    4         0.5945336441
    5    5         0.5945336441
    6    1         0.0514107330
    6    3         0.0680862275
    6    6         0.9128454180
    6   10        -0.0757572137
    7    7         1.2292930118
    8    8         1.2292930118
    9    2         0.1515071969
    9    9         1.2986818599
    9   10        -0.0000000004
   10    1        -0.0077867434
   10    3        -0.4514199021
   10    6        -0.0757572137
   10    9        -0.0000000004
   10   10         1.6755491895
 begin_one_electron_integrals
    1    1        -0.8472992973
    1    3         0.0830399557
    1    6        -0.0068904709
    1   10        -0.0019199401
    2    2        -0.7013248081
    2    9         0.0112012230
    3    1         0.0830399557
    3    3        -0.1564703498
    3    6         0.0076614264
    3   10        -0.2833902232
    4    4        -0.1679341111
    5    5        -0.1679341111
    6    1        -0.0068904709
    6    3         0.0076614264
    6    6         0.0713294778
    6   10        -0.0492739568
    7    7         0.3789268175
    8    8         0.3789268175
    9    2         0.0112012230
    9    9         0.4438798827
    9   10        -0.0000000003
   10    1        -0.0019199401
   10    3        -0.2833902232
   10    6        -0.0492739568
   10    9        -0.0000000003
   10   10         0.8813405830
 end_one_electron_integrals
 begin_two_electron_integrals
    1    1    1    1        0.4502362171
    1    1    1    3       -0.0834708814
    1    1    1    6        0.0583012038
    1    1    1   10       -0.0058668033
    1    2    1    2        0.1816257944
    1    2    1    9        0.0453525366
    1    3    1    1       -0.0834708814
    1    3    1    3        0.0703593958
    1    3    1    6        0.0018797465
    1    3    1   10       -0.0172277533
    1    4    1    4        0.0630647678
    1    5    1    5        0.0630647678
    1    6    1    1        0.0583012038
    1    6    1    3        0.0018797465
    1    6    1    6        0.0711872159
    1    6    1   10       -0.0091439226
    1    7    1    7        0.0531066487
    1    8    1    8        0.0531066487
    1    9    1    2        0.0453525366
    1    9    1    9        0.0611404599
    1   10    1    1       -0.0058668033
    1   10    1    3       -0.0172277533
    1   10    1    6       -0.0091439226
    1   10    1   10        0.0268741836
    1    1    2    2        0.4622988424
    1    1    2    9        0.0929512397
    1    2    2    1        0.1830033104
    1    2    2    3        0.0033385933
    1    2    2    6        0.1267331363
    1    2    2   10       -0.0215973136
    1    3    2    2       -0.0669289878
    1    3    2    9       -0.0657294413
    1    4    2    7        0.0608743935
    1    4    2    8        0.0024653444
    1    5    2    7       -0.0024653444
    1    5    2    8        0.0608743935
    1    6    2    2        0.0915867314
    1    6    2    9        0.0316783936
    1    7    2    4        0.0409467588
    1    7    2    5       -0.0016582976
    1    8    2    4        0.0016582976
    1    8    2    5        0.0409467588
    1    9    2    1        0.0455965056
    1    9    2    3       -0.0376056615
    1    9    2    6        0.0423912945
    1    9    2   10       -0.0043201759
    1   10    2    2       -0.0143491067
    1   10    2    9        0.0065803023
    1    1    3    1       -0.0834708814
    1    1    3    3        0.4083902315
    1    1    3    6        0.0312758304
    1    1    3   10       -0.0927405123
    1    2    3    2        0.0033367044
    1    2    3    9       -0.1228444468
    1    3    3    1        0.0712536880
    1    3    3    3       -0.0957116941
    1    3    3    6       -0.0189843646
    1    3    3   10        0.0749890160
    1    4    3    4       -0.0137347539
    1    5    3    5       -0.0137347539
    1    6    3    1        0.0021268597
    1    6    3    3        0.0187628935
    1    6    3    6       -0.0101330231
    1    6    3   10        0.0050240055
    1    7    3    7       -0.0046371274
    1    8    3    8       -0.0046371274
    1    9    3    2       -0.0376391494
    1    9    3    9       -0.0363421682
    1   10    3    1       -0.0174513458
    1   10    3    3        0.0255452870
    1   10    3    6        0.0083579884
    1   10    3   10       -0.0264962069
    1    1    4    4        0.4131118884
    1    2    4    7        0.1261224310
    1    2    4    8        0.0051078164
    1    3    4    4       -0.0792206274
    1    4    4    1        0.0637560216
    1    4    4    3       -0.0137634423
    1    4    4    6       -0.0325839345
    1    4    4   10       -0.0219325094
    1    6    4    4        0.0098676202
    1    7    4    2        0.0409752832
    1    7    4    9        0.0021976687
    1    8    4    2        0.0016594528
    1    8    4    9        0.0000890031
    1    9    4    7        0.0272025690
    1    9    4    8        0.0011016734
    1   10    4    4       -0.0094550853
    1    1    5    5        0.4131118884
    1    2    5    7       -0.0051078164
    1    2    5    8        0.1261224310
    1    3    5    5       -0.0792206274
    1    5    5    1        0.0637560216
    1    5    5    3       -0.0137634423
    1    5    5    6       -0.0325839345
    1    5    5   10       -0.0219325094
    1    6    5    5        0.0098676202
    1    7    5    2       -0.0016594528
    1    7    5    9       -0.0000890031
    1    8    5    2        0.0409752832
    1    8    5    9        0.0021976687
    1    9    5    7       -0.0011016734
    1    9    5    8        0.0272025690
    1   10    5    5       -0.0094550853
    1    1    6    1        0.0583012038
    1    1    6    3        0.0312758304
    1    1    6    6        0.4568041953
    1    1    6   10       -0.0178978783
    1    2    6    2        0.1267413194
    1    2    6    9        0.0738090445
    1    2    6   10       -0.0000000002
    1    3    6    1        0.0021268597
    1    3    6    3       -0.0189930937
    1    3    6    6       -0.0826312768
    1    3    6   10        0.0090877402
    1    4    6    4       -0.0325939236
    1    5    6    5       -0.0325939236
    1    6    6    1        0.0720924503
    1    6    6    3       -0.0101507826
    1    6    6    6        0.0707329808
    1    6    6   10       -0.0218574879
    1    7    6    7        0.0128062355
    1    8    6    8        0.0128062355
    1    9    6    2        0.0424345852
    1    9    6    9        0.0422329232
    1   10    6    1       -0.0093124997
    1   10    6    3        0.0083563780
    1   10    6    6       -0.0161457223
    1   10    6   10       -0.0074094360
    1    1    7    7        0.4521666476
    1    2    7    4        0.1261168774
    1    2    7    5       -0.0051075915
    1    3    7    7       -0.0774689853
    1    4    7    2        0.0608973431
    1    4    7    9        0.0069192522
    1    5    7    2       -0.0024662738
    1    5    7    9       -0.0002802219
    1    6    7    7        0.0531716089
    1    7    7    1        0.0539671008
    1    7    7    3       -0.0046588436
    1    7    7    6        0.0128238788
    1    7    7   10       -0.0171661178
    1    9    7    4        0.0272021495
    1    9    7    5       -0.0011016564
    1   10    7    7       -0.0154803074
    1    1    8    8        0.4521666476
    1    2    8    4        0.0051075915
    1    2    8    5        0.1261168774
    1    3    8    8       -0.0774689853
    1    4    8    2        0.0024662738
    1    4    8    9        0.0002802219
    1    5    8    2        0.0608973431
    1    5    8    9        0.0069192522
    1    6    8    8        0.0531716089
    1    8    8    1        0.0539671008
    1    8    8    3       -0.0046588436
    1    8    8    6        0.0128238788
    1    8    8   10       -0.0171661178
    1    9    8    4        0.0011016564
    1    9    8    5        0.0272021495
    1   10    8    8       -0.0154803074
    1    1    9    2        0.0929512397
    1    1    9    9        0.4582327741
    1    2    9    1        0.0455965056
    1    2    9    3       -0.1228423116
    1    2    9    6        0.0737758956
    1    2    9   10        0.0012543757
    1    3    9    2       -0.0657607758
    1    3    9    9       -0.0956952660
    1    4    9    7        0.0069017976
    1    4    9    8        0.0002795150
    1    5    9    7       -0.0002795150
    1    5    9    8        0.0069017976
    1    6    9    2        0.0316884576
    1    6    9    9        0.0736631273
    1    7    9    4        0.0021797866
    1    7    9    5       -0.0000882789
    1    8    9    4        0.0000882789
    1    8    9    5        0.0021797866
    1    9    9    1        0.0616635710
    1    9    9    3       -0.0363695676
    1    9    9    6        0.0422353004
    1    9    9   10        0.0278441553
    1   10    9    2        0.0066232646
    1   10    9    9        0.0112741621
    1    1   10    1       -0.0058668033
    1    1   10    3       -0.0927405123
    1    1   10    6       -0.0178978783
    1    1   10   10        0.4108123258
    1    2   10    2       -0.0215978556
    1    2   10    6       -0.0000000002
    1    2   10    9        0.0012453949
    1    2   10   10       -0.0000000001
    1    3   10    1       -0.0174513458
    1    3   10    3        0.0749901963
    1    3   10    6        0.0090891925
    1    3   10   10       -0.0995990105
    1    4   10    4       -0.0219376977
    1    5   10    5       -0.0219376977
    1    6   10    1       -0.0093124997
    1    6   10    3        0.0050238454
    1    6   10    6       -0.0218633645
    1    6   10   10        0.0146126195
    1    7   10    7       -0.0171698911
    1    8   10    8       -0.0171698911
    1    9   10    2       -0.0042862300
    1    9   10    9        0.0278460999
    1   10   10    1        0.0274160451
    1   10   10    3       -0.0265015143
    1   10   10    6       -0.0074030292
    1   10   10   10        0.0263809046
    2    1    1    2        0.1830033104
    2    1    1    9        0.0455965056
    2    2    1    1        0.4622988424
    2    2    1    3       -0.0669289878
    2    2    1    6        0.0915867314
    2    2    1   10       -0.0143491067
    2    3    1    2        0.0033385933
    2    3    1    9       -0.0376056615
    2    4    1    7        0.0409467588
    2    4    1    8        0.0016582976
    2    5    1    7       -0.0016582976
    2    5    1    8        0.0409467588
    2    6    1    2        0.1267331363
    2    6    1    9        0.0423912945
    2    7    1    4        0.0608743935
    2    7    1    5       -0.0024653444
    2    8    1    4        0.0024653444
    2    8    1    5        0.0608743935
    2    9    1    1        0.0929512397
    2    9    1    3       -0.0657294413
    2    9    1    6        0.0316783936
    2    9    1   10        0.0065803023
    2   10    1    2       -0.0215973136
    2   10    1    9       -0.0043201759
    2    1    2    1        0.1816257944
    2    1    2    3        0.0033367044
    2    1    2    6        0.1267413194
    2    1    2   10       -0.0215978556
    2    2    2    2        0.4910954581
    2    2    2    9        0.0922557845
    2    3    2    1        0.0033367044
    2    3    2    3        0.0311286389
    2    3    2    6       -0.0013985917
    2    3    2   10       -0.0002936227
    2    4    2    4        0.0317375572
    2    5    2    5        0.0317375572
    2    6    2    1        0.1267413194
    2    6    2    3       -0.0013985917
    2    6    2    6        0.1107287948
    2    6    2   10       -0.0194282216
    2    7    2    7        0.0715728018
    2    8    2    8        0.0715728018
    2    9    2    2        0.0922557845
    2    9    2    9        0.0863047848
    2   10    2    1       -0.0215978556
    2   10    2    3       -0.0002936227
    2   10    2    6       -0.0194282216
    2   10    2   10        0.0156406706
    2    1    3    2        0.0033385933
    2    1    3    9       -0.1228423116
    2    2    3    1       -0.0669289878
    2    2    3    3        0.3973567310
    2    2    3    6        0.0228304838
    2    2    3   10       -0.0739945288
    2    3    3    2        0.0311286385
    2    3    3    9        0.0024619293
    2    4    3    7       -0.0023338413
    2    4    3    8       -0.0000945179
    2    5    3    7        0.0000945179
    2    5    3    8       -0.0023338413
    2    6    3    2       -0.0013985926
    2    6    3    9       -0.0747465532
    2    7    3    4       -0.0080890783
    2    7    3    5        0.0003275986
    2    8    3    4       -0.0003275986
    2    8    3    5       -0.0080890783
    2    9    3    1       -0.0657607758
    2    9    3    3        0.0799676131
    2    9    3    6        0.0021553476
    2    9    3   10       -0.0607486009
    2   10    3    2       -0.0002936230
    2   10    3    9       -0.0008591322
    2    1    4    7        0.1261168774
    2    1    4    8        0.0051075915
    2    2    4    4        0.4026295451
    2    3    4    7        0.0007471205
    2    3    4    8        0.0000302575
    2    4    4    2        0.0317375613
    2    4    4    9       -0.0001975493
    2    6    4    7        0.0697615665
[...]
    9    2    4    4        0.0685316594
    9    3    4    7       -0.0872022666
    9    3    4    8       -0.0035315936
    9    4    4    2       -0.0001975493
    9    4    4    9        0.0120846529
    9    6    4    7        0.0454305342
    9    6    4    8        0.0018398855
    9    7    4    1        0.0069192522
    9    7    4    3       -0.0152116896
    9    7    4    6        0.0016685068
    9    7    4   10        0.0019293712
    9    8    4    1        0.0002802219
    9    8    4    3       -0.0006160563
    9    8    4    6        0.0000675726
    9    8    4   10        0.0000781374
    9    9    4    4        0.4031735650
    9   10    4    7        0.0056600267
    9   10    4    8        0.0002292247
    9    1    5    7       -0.0011016564
    9    1    5    8        0.0272021495
    9    2    5    5        0.0685316594
    9    3    5    7        0.0035315936
    9    3    5    8       -0.0872022666
    9    5    5    2       -0.0001975493
    9    5    5    9        0.0120846529
    9    6    5    7       -0.0018398855
    9    6    5    8        0.0454305342
    9    7    5    1       -0.0002802219
    9    7    5    3        0.0006160563
    9    7    5    6       -0.0000675726
    9    7    5   10       -0.0000781374
    9    8    5    1        0.0069192522
    9    8    5    3       -0.0152116896
    9    8    5    6        0.0016685068
    9    8    5   10        0.0019293712
    9    9    5    5        0.4031735650
    9   10    5    7       -0.0002292247
    9   10    5    8        0.0056600267
    9    1    6    2        0.0423912945
    9    1    6    9        0.0422353004
    9    2    6    1        0.0316783936
    9    2    6    3        0.0021553476
    9    2    6    6        0.1024949388
    9    2    6   10       -0.0140177489
    9    3    6    2       -0.0747465532
    9    3    6    9       -0.0492952891
    9    3    6   10        0.0000000001
    9    4    6    7        0.0036262285
    9    4    6    8        0.0001468582
    9    5    6    7       -0.0001468582
    9    5    6    8        0.0036262285
    9    6    6    2        0.0607320149
    9    6    6    9        0.0515950656
    9    7    6    4        0.0016685124
    9    7    6    5       -0.0000675729
    9    8    6    4        0.0000675729
    9    8    6    5        0.0016685124
    9    9    6    1        0.0736631273
    9    9    6    3        0.0223285251
    9    9    6    6        0.4583732719
    9    9    6   10       -0.0220747361
    9   10    6    2       -0.0033719600
    9   10    6    9        0.0067697484
    9    1    7    4        0.0272025690
    9    1    7    5       -0.0011016734
    9    2    7    7        0.0853582822
    9    3    7    4       -0.0872022679
    9    3    7    5        0.0035315936
    9    4    7    1        0.0021976687
    9    4    7    3       -0.0113345237
    9    4    7    6        0.0036262226
    9    4    7   10        0.0021287651
    9    5    7    1       -0.0000890031
    9    5    7    3        0.0004590354
    9    5    7    6       -0.0001468579
    9    5    7   10       -0.0000862126
    9    6    7    4        0.0454305339
    9    6    7    5       -0.0018398854
    9    7    7    2        0.0088821207
    9    7    7    9        0.0201706722
    9    9    7    7        0.4495959887
    9   10    7    4        0.0056600281
    9   10    7    5       -0.0002292248
    9    1    8    4        0.0011016734
    9    1    8    5        0.0272025690
    9    2    8    8        0.0853582822
    9    3    8    4       -0.0035315936
    9    3    8    5       -0.0872022679
    9    4    8    1        0.0000890031
    9    4    8    3       -0.0004590354
    9    4    8    6        0.0001468579
    9    4    8   10        0.0000862126
    9    5    8    1        0.0021976687
    9    5    8    3       -0.0113345237
    9    5    8    6        0.0036262226
    9    5    8   10        0.0021287651
    9    6    8    4        0.0018398854
    9    6    8    5        0.0454305339
    9    8    8    2        0.0088821207
    9    8    8    9        0.0201706722
    9    9    8    8        0.4495959887
    9   10    8    4        0.0002292248
    9   10    8    5        0.0056600281
    9    1    9    1        0.0611404599
    9    1    9    3       -0.0363421682
    9    1    9    6        0.0422329232
    9    1    9   10        0.0278460999
    9    2    9    2        0.0863047848
    9    2    9    9        0.1168251659
    9    3    9    1       -0.0363421682
    9    3    9    3        0.1034423854
    9    3    9    6       -0.0492952920
    9    3    9   10       -0.0115841411
    9    4    9    4        0.0120846832
    9    5    9    5        0.0120846832
    9    6    9    1        0.0422329232
    9    6    9    3       -0.0492952920
    9    6    9    6        0.0515950874
    9    6    9   10        0.0067697401
    9    7    9    7        0.0201706942
    9    8    9    8        0.0201706942
    9    9    9    2        0.1168251659
    9    9    9    9        0.4982316929
    9   10    9    1        0.0278460999
    9   10    9    3       -0.0115841411
    9   10    9    6        0.0067697401
    9   10    9   10        0.0312423070
    9    1   10    2       -0.0043201759
    9    1   10    9        0.0278441553
    9    2   10    1        0.0065803023
    9    2   10    3       -0.0607486009
    9    2   10    6       -0.0140177465
    9    2   10   10        0.0818081015
    9    3   10    2       -0.0008591322
    9    3   10    6        0.0000000001
    9    3   10    9       -0.0115841499
    9    4   10    7        0.0021287699
    9    4   10    8        0.0000862128
    9    5   10    7       -0.0000862128
    9    5   10    8        0.0021287699
    9    6   10    2       -0.0110018634
    9    6   10    9        0.0067697484
    9    7   10    4        0.0019293773
    9    7   10    5       -0.0000781376
    9    8   10    4        0.0000781376
    9    8   10    5        0.0019293773
    9    9   10    1        0.0112741621
    9    9   10    3       -0.1040205116
    9    9   10    6       -0.0220747361
    9    9   10   10        0.4242520943
    9   10   10    2        0.0038781370
    9   10   10    9        0.0312423162
   10    1    1    1       -0.0058668033
   10    1    1    3       -0.0174513458
   10    1    1    6       -0.0093124997
   10    1    1   10        0.0274160451
   10    2    1    2       -0.0215978556
   10    2    1    9       -0.0042862300
   10    3    1    1       -0.0927405123
   10    3    1    3        0.0749901963
   10    3    1    6        0.0050238454
   10    3    1   10       -0.0265015143
   10    4    1    4       -0.0219376977
   10    5    1    5       -0.0219376977
   10    6    1    1       -0.0178978783
   10    6    1    2       -0.0000000002
   10    6    1    3        0.0090891925
   10    6    1    6       -0.0218633645
   10    6    1   10       -0.0074030292
   10    7    1    7       -0.0171698911
   10    8    1    8       -0.0171698911
   10    9    1    2        0.0012453949
   10    9    1    9        0.0278460999
   10   10    1    1        0.4108123258
   10   10    1    2       -0.0000000001
   10   10    1    3       -0.0995990105
   10   10    1    6        0.0146126195
   10   10    1   10        0.0263809046
   10    1    2    2       -0.0143491067
   10    1    2    9        0.0066232646
   10    2    2    1       -0.0215973136
   10    2    2    3       -0.0002936230
   10    2    2    6       -0.0194282209
   10    2    2   10        0.0156406703
   10    3    2    2       -0.0739945288
   10    3    2    9       -0.0607486012
   10    4    2    7       -0.0204991934
   10    4    2    8       -0.0008301942
   10    5    2    7        0.0008301942
   10    5    2    8       -0.0204991934
   10    6    2    1       -0.0000000002
   10    6    2    2       -0.0255160824
   10    6    2    6       -0.0000000001
   10    6    2    9       -0.0140177489
   10    7    2    4       -0.0132016057
   10    7    2    5        0.0005346502
   10    8    2    4       -0.0005346502
   10    8    2    5       -0.0132016057
   10    9    2    1        0.0012543757
   10    9    2    3       -0.0241801383
   10    9    2    6       -0.0033719600
   10    9    2   10        0.0038781370
   10   10    2    1       -0.0000000001
   10   10    2    2        0.3968543105
   10   10    2    9        0.0818081015
   10    1    3    1       -0.0172277533
   10    1    3    3        0.0255452870
   10    1    3    6        0.0083563780
   10    1    3   10       -0.0265015143
   10    2    3    2       -0.0002936227
   10    2    3    9       -0.0008591339
   10    3    3    1        0.0749890160
   10    3    3    3       -0.1155817751
   10    3    3    6       -0.0256169658
   10    3    3   10        0.0961501689
   10    4    3    4       -0.0005627388
   10    5    3    5       -0.0005627388
   10    6    3    1        0.0090877402
   10    6    3    3       -0.0173543527
   10    6    3    6       -0.0035651218
   10    6    3    9        0.0000000001
   10    6    3   10        0.0145046890
   10    7    3    7       -0.0010384044
   10    8    3    8       -0.0010384044
   10    9    3    2       -0.0241801398
   10    9    3    9       -0.0115841411
   10   10    3    1       -0.0995990105
   10   10    3    3        0.4197894348
   10   10    3    6        0.0441816221
   10   10    3   10       -0.1233194094
   10    1    4    4       -0.0094550853
   10    2    4    7       -0.0169604764
   10    2    4    8       -0.0006868802
   10    3    4    4       -0.0861141577
   10    4    4    1       -0.0219325094
   10    4    4    3       -0.0005627425
   10    4    4    6        0.0140619288
   10    4    4   10        0.0174278695
   10    6    4    4        0.0010161410
   10    6    4    7       -0.0000000001
   10    7    4    2       -0.0132016046
   10    7    4    9        0.0021287651
   10    8    4    2       -0.0005346501
   10    8    4    9        0.0000862126
   10    9    4    7        0.0056600281
   10    9    4    8        0.0002292248
   10   10    4    4        0.3910768028
   10   10    4    7       -0.0000000001
   10    1    5    5       -0.0094550853
   10    2    5    7        0.0006868802
   10    2    5    8       -0.0169604764
   10    3    5    5       -0.0861141577
   10    5    5    1       -0.0219325094
   10    5    5    3       -0.0005627425
   10    5    5    6        0.0140619288
   10    5    5   10        0.0174278695
   10    6    5    5        0.0010161410
   10    6    5    8       -0.0000000001
   10    7    5    2        0.0005346501
   10    7    5    9       -0.0000862126
   10    8    5    2       -0.0132016046
   10    8    5    9        0.0021287651
   10    9    5    7       -0.0002292248
   10    9    5    8        0.0056600281
   10   10    5    5        0.3910768028
   10   10    5    8       -0.0000000001
   10    1    6    1       -0.0091439226
   10    1    6    3        0.0083579884
   10    1    6    6       -0.0161457223
   10    1    6   10       -0.0074030292
   10    2    6    2       -0.0194282216
   10    2    6    9       -0.0110018636
   10    3    6    1        0.0050240055
   10    3    6    3       -0.0256169667
   10    3    6    6       -0.0874980755
   10    3    6   10        0.0145046890
   10    4    6    4        0.0140619278
   10    5    6    5        0.0140619278
   10    6    6    1       -0.0218574879
   10    6    6    2       -0.0000000001
   10    6    6    3       -0.0035651209
   10    6    6    6       -0.0190712108
   10    6    6   10        0.0174877327
   10    7    6    7       -0.0034316816
   10    8    6    8       -0.0034316816
   10    9    6    2       -0.0033719579
   10    9    6    9        0.0067697401
   10   10    6    1        0.0146126195
   10   10    6    3        0.0441816221
   10   10    6    6        0.4037392073
   10   10    6   10       -0.0157657300
   10    1    7    7       -0.0154803074
   10    2    7    4       -0.0169604765
   10    2    7    5        0.0006868802
   10    3    7    7       -0.0839737207
   10    4    7    2       -0.0204991925
   10    4    7    9        0.0019293712
   10    5    7    2        0.0008301942
   10    5    7    9       -0.0000781374
   10    6    7    4       -0.0000000001
   10    6    7    7       -0.0131117991
   10    7    7    1       -0.0171661178
   10    7    7    3       -0.0010384049
   10    7    7    6       -0.0034316801
   10    7    7   10        0.0106033839
   10    9    7    4        0.0056600267
   10    9    7    5       -0.0002292247
   10   10    7    4       -0.0000000001
   10   10    7    7        0.4013407440
   10    1    8    8       -0.0154803074
   10    2    8    4       -0.0006868802
   10    2    8    5       -0.0169604765
   10    3    8    8       -0.0839737207
   10    4    8    2       -0.0008301942
   10    4    8    9        0.0000781374
   10    5    8    2       -0.0204991925
   10    5    8    9        0.0019293712
   10    6    8    5       -0.0000000001
   10    6    8    8       -0.0131117991
   10    8    8    1       -0.0171661178
   10    8    8    3       -0.0010384049
   10    8    8    6       -0.0034316801
   10    8    8   10        0.0106033839
   10    9    8    4        0.0002292247
   10    9    8    5        0.0056600267
   10   10    8    5       -0.0000000001
   10   10    8    8        0.4013407440
   10    1    9    2        0.0065803023
   10    1    9    9        0.0112741621
   10    2    9    1       -0.0043201759
   10    2    9    3       -0.0008591322
   10    2    9    6       -0.0110018634
   10    2    9   10        0.0038781370
   10    3    9    2       -0.0607486009
   10    3    9    9       -0.1040205116
   10    4    9    7        0.0019293773
   10    4    9    8        0.0000781376
   10    5    9    7       -0.0000781376
   10    5    9    8        0.0019293773
   10    6    9    2       -0.0140177465
   10    6    9    3        0.0000000001
   10    6    9    9       -0.0220747361
   10    7    9    4        0.0021287699
   10    7    9    5       -0.0000862128
   10    8    9    4        0.0000862128
   10    8    9    5        0.0021287699
   10    9    9    1        0.0278441553
   10    9    9    3       -0.0115841499
   10    9    9    6        0.0067697484
   10    9    9   10        0.0312423162
   10   10    9    2        0.0818081015
   10   10    9    9        0.4242520943
   10    1   10    1        0.0268741836
   10    1   10    3       -0.0264962069
   10    1   10    6       -0.0074094360
   10    1   10   10        0.0263809046
   10    2   10    2        0.0156406706
   10    2   10    9        0.0038781363
   10    3   10    1       -0.0264962069
   10    3   10    3        0.0961501697
   10    3   10    6        0.0145046878
   10    3   10   10       -0.1233194094
   10    4   10    4        0.0174278709
   10    5   10    5        0.0174278709
   10    6   10    1       -0.0074094360
   10    6   10    3        0.0145046878
   10    6   10    6        0.0174877352
   10    6   10   10       -0.0157657300
   10    7   10    7        0.0106033867
   10    8   10    8        0.0106033867
   10    9   10    2        0.0038781363
   10    9   10    9        0.0312423070
   10   10   10    1        0.0263809046
   10   10   10    3       -0.1233194094
   10   10   10    6       -0.0157657300
   10   10   10   10        0.4341647082
 end_two_electron_integrals

 Parallel integral file used      20 records with       0 large values


 Task  times  cpu:      137.0s     wall:      139.2s


                                NWChem Input Module
                                -------------------


 Summary of allocated global arrays
-----------------------------------
  No active global arrays


MA_summarize_allocated_blocks: starting scan ...
MA_summarize_allocated_blocks: scan completed: 0 heap blocks, 0 stack blocks
MA usage statistics:

	allocation statistics:
					      heap	     stack
					      ----	     -----
	current number of blocks	         0	         0
	maximum number of blocks	        18	        42
	current total bytes		         0	         0
	maximum total bytes		  51983048	9994007128
	maximum total K-bytes		     51984	   9994008
	maximum total M-bytes		        52	      9995


                                     CITATION
                                     --------
                Please cite the following reference when publishing
                           results obtained with NWChem:

          E. Apra, E. J. Bylaska, W. A. de Jong, N. Govind, K. Kowalski,
       T. P. Straatsma, M. Valiev, H. J. J. van Dam, Y. Alexeev, J. Anchell,
       V. Anisimov, F. W. Aquino, R. Atta-Fynn, J. Autschbach, N. P. Bauman,
     J. C. Becca, D. E. Bernholdt, K. Bhaskaran-Nair, S. Bogatko, P. Borowski,
         J. Boschen, J. Brabec, A. Bruner, E. Cauet, Y. Chen, G. N. Chuev,
      C. J. Cramer, J. Daily, M. J. O. Deegan, T. H. Dunning Jr., M. Dupuis,
   K. G. Dyall, G. I. Fann, S. A. Fischer, A. Fonari, H. Fruchtl, L. Gagliardi,
      J. Garza, N. Gawande, S. Ghosh, K. Glaesemann, A. W. Gotz, J. Hammond,
       V. Helms, E. D. Hermes, K. Hirao, S. Hirata, M. Jacquelin, L. Jensen,
   B. G. Johnson, H. Jonsson, R. A. Kendall, M. Klemm, R. Kobayashi, V. Konkov,
      S. Krishnamoorthy, M. Krishnan, Z. Lin, R. D. Lins, R. J. Littlefield,
      A. J. Logsdail, K. Lopata, W. Ma, A. V. Marenich, J. Martin del Campo,
   D. Mejia-Rodriguez, J. E. Moore, J. M. Mullin, T. Nakajima, D. R. Nascimento,
    J. A. Nichols, P. J. Nichols, J. Nieplocha, A. Otero-de-la-Roza, B. Palmer,
    A. Panyala, T. Pirojsirikul, B. Peng, R. Peverati, J. Pittner, L. Pollack,
   R. M. Richard, P. Sadayappan, G. C. Schatz, W. A. Shelton, D. W. Silverstein,
   D. M. A. Smith, T. A. Soares, D. Song, M. Swart, H. L. Taylor, G. S. Thomas,
            V. Tipparaju, D. G. Truhlar, K. Tsemekhman, T. Van Voorhis,
      A. Vazquez-Mayagoitia, P. Verma, O. Villa, A. Vishnu, K. D. Vogiatzis,
        D. Wang, J. H. Weare, M. J. Williamson, T. L. Windus, K. Wolinski,
        A. T. Wong, Q. Wu, C. Yang, Q. Yu, M. Zacharias, Z. Zhang, Y. Zhao,
                                and R. J. Harrison
                        "NWChem: Past, present, and future
                         J. Chem. Phys. 152, 184102 (2020)
                               doi:10.1063/5.0004997

                                      AUTHORS
                                      -------
  E. Apra, E. J. Bylaska, N. Govind, K. Kowalski, M. Valiev, D. Mejia-Rodriguez,
       A. Kunitsa, N. P. Bauman, A. Panyala, W. A. de Jong, T. P. Straatsma,
        H. J. J. van Dam, D. Wang, T. L. Windus, J. Hammond, J. Autschbach,
    K. Bhaskaran-Nair, J. Brabec, K. Lopata, S. A. Fischer, S. Krishnamoorthy,
     M. Jacquelin, W. Ma, M. Klemm, O. Villa, Y. Chen, V. Anisimov, F. Aquino,
    S. Hirata, M. T. Hackler, Eric Hermes, L. Jensen, J. E. Moore, J. C. Becca,
      V. Konjkov, T. Risthaus, M. Malagoli, A. Marenich, A. Otero-de-la-Roza,
        J. Mullin, P. Nichols, R. Peverati, J. Pittner, Y. Zhao, P.-D. Fan,
        A. Fonari, M. J. Williamson, R. J. Harrison, J. R. Rehr, M. Dupuis,
     D. Silverstein, D. M. A. Smith, J. Nieplocha, V. Tipparaju, M. Krishnan,
     B. E. Van Kuiken, A. Vazquez-Mayagoitia, M. Swart, Q. Wu, T. Van Voorhis,
     A. A. Auer, M. Nooijen, L. D. Crosby, E. Brown, G. Cisneros, G. I. Fann,
   H. Fruchtl, J. Garza, K. Hirao, R. A. Kendall, J. A. Nichols, K. Tsemekhman,
    K. Wolinski, J. Anchell, D. E. Bernholdt, P. Borowski, T. Clark, D. Clerc,
   H. Dachsel, M. J. O. Deegan, K. Dyall, D. Elwood, E. Glendening, M. Gutowski,
   A. C. Hess, J. Jaffe, B. G. Johnson, J. Ju, R. Kobayashi, R. Kutteh, Z. Lin,
   R. Littlefield, X. Long, B. Meng, T. Nakajima, S. Niu, L. Pollack, M. Rosing,
   K. Glaesemann, G. Sandrone, M. Stave, H. Taylor, G. Thomas, J. H. van Lenthe,
                               A. T. Wong, Z. Zhang.

 Total times  cpu:      140.1s     wall:      142.9s
