 argument  1 = input.nw
  NWChem w/ OpenMP: maximum threads =    1



============================== echo of input deck ==============================
 echo
 start H2
 title "H2"

 memory total 24 gb

 geometry units bohr
 symmetry c1
        H  0.00000000  0.00000000  0.00000000
        H  0.00000000  7.40  0.00000000
 end

 basis
   * library cc-pVQZ
 end

 mcscf
   active  10
   actelec 2
   multiplicity 1
   maxiter 40
   vectors input H2.mos
   vectors output H2.mos
 end

 task mcscf

 scf
   vectors input H2.mos
   vectors output H2-7.40.mos
   noscf
 end

 tce
   2eorb
   2emet 13
   ccsd
   maxiter 300
   lshift 0.8
 end

# set tce:print_integrals T
# set tce:qorb 10
# set tce:qela 1
# set tce:qelb 1

 set tce:qducc T
 set tce:nactv 9
 set tce:nonhf T
 set tce:ducc_model 6

 set tce:printtol 0.02

 task tce
================================================================================


                                         
                                         


             Northwest Computational Chemistry Package (NWChem) 7.0.1
             --------------------------------------------------------


                    Environmental Molecular Sciences Laboratory
                       Pacific Northwest National Laboratory
                                Richland, WA 99352

                              Copyright (c) 1994-2020
                       Pacific Northwest National Laboratory
                            Battelle Memorial Institute

             NWChem is an open-source computational chemistry package
                        distributed under the terms of the
                      Educational Community License (ECL) 2.0
             A copy of the license is included with this distribution
                              in the LICENSE.TXT file

                                  ACKNOWLEDGMENT
                                  --------------

            This software and its documentation were developed at the
            EMSL at Pacific Northwest National Laboratory, a multiprogram
            national laboratory, operated for the U.S. Department of Energy
            by Battelle under Contract Number DE-AC05-76RL01830. Support
            for this work was provided by the Department of Energy Office
            of Biological and Environmental Research, Office of Basic
            Energy Sciences, and the Office of Advanced Scientific Computing.


           Job information
           ---------------

    hostname        = WE46210
    program         = /home/baum612/code/nwchem/bin/LINUX64/nwchem
    date            = Sat Nov 11 04:41:13 2023

    compiled        = Mon_Nov_06_10:06:57_2023
    source          = /home/baum612/code/nwchem
    nwchem branch   = 7.0.0
    nwchem revision = nwchem_on_git-4191-g39d87d64de
    ga revision     = 5.8.1
    use scalapack   = F
    input           = input.nw
    prefix          = H2.
    data base       = ./H2.db
    status          = startup
    nproc           =        1
    time left       =     -1s



           Memory information
           ------------------

    heap     =  805306362 doubles =   6144.0 Mbytes
    stack    =  805306367 doubles =   6144.0 Mbytes
    global   = 1610612736 doubles =  12288.0 Mbytes (distinct from heap & stack)
    total    = 3221225465 doubles =  24576.0 Mbytes
    verify   = yes
    hardfail = no 


           Directory information
           ---------------------

  0 permanent = .
  0 scratch   = .




                                NWChem Input Module
                                -------------------


                                        H2
                                        --
 Turning off AUTOSYM since
 SYMMETRY directive was detected!


          ------
          auto-z
          ------
     1 autoz failed with cvr_scaling = 1.2 changing to 1.3
     2 autoz failed with cvr_scaling = 1.3 changing to 1.4
     3 autoz failed with cvr_scaling = 1.4 changing to 1.5
     4 autoz failed with cvr_scaling = 1.5 changing to 1.6
     5 autoz failed with cvr_scaling = 1.6 changing to 1.7

 AUTOZ failed to generate good internal coordinates.
 Cartesian coordinates will be used in optimizations.



                             Geometry "geometry" -> ""
                             -------------------------

 Output coordinates in a.u. (scale by  1.000000000 to convert to a.u.)

  No.       Tag          Charge          X              Y              Z
 ---- ---------------- ---------- -------------- -------------- --------------
    1 H                    1.0000     0.00000000    -3.70000000     0.00000000
    2 H                    1.0000     0.00000000     3.70000000     0.00000000

      Atomic Mass 
      ----------- 

      H                  1.007825


 Effective nuclear repulsion energy (a.u.)       0.1351351351

            Nuclear Dipole moment (a.u.) 
            ----------------------------
        X                 Y               Z
 ---------------- ---------------- ----------------
     0.0000000000     0.0000000000     0.0000000000


            XYZ format geometry
            -------------------
     2
 geometry
 H                     0.00000000    -1.95795582     0.00000000
 H                     0.00000000     1.95795582     0.00000000



 Summary of "ao basis" -> "" (cartesian)
 ------------------------------------------------------------------------------
       Tag                 Description            Shells   Functions and Types
 ---------------- ------------------------------  ------  ---------------------
 *                          cc-pVQZ                   on all atoms 


                      Basis "ao basis" -> "ao basis" (cartesian)
                      -----
  H (Hydrogen)
  ------------
            Exponent  Coefficients 
       -------------- ---------------------------------------------------------
  1 S  8.26400000E+01  0.002006
  1 S  1.24100000E+01  0.015343
  1 S  2.82400000E+00  0.075579

  2 S  7.97700000E-01  1.000000

  3 S  2.58100000E-01  1.000000

  4 S  8.98900000E-02  1.000000

  5 P  2.29200000E+00  1.000000

  6 P  8.38000000E-01  1.000000

  7 P  2.92000000E-01  1.000000

  8 D  2.06200000E+00  1.000000

  9 D  6.62000000E-01  1.000000

 10 F  1.39700000E+00  1.000000



 Summary of "ao basis" -> "ao basis" (cartesian)
 ------------------------------------------------------------------------------
       Tag                 Description            Shells   Functions and Types
 ---------------- ------------------------------  ------  ---------------------
 H                          cc-pVQZ                 10       35   4s3p2d1f



                            NWChem Direct MCSCF Module
                            --------------------------


                                        H2


     -----------------------------------
       Basis functions:             70
       Inactive shells:              0
       Active shells:               10
       Active electrons:             2
       Symmetry:                    a       
       Multiplicity:                 1
       Orbital rotations:          600
     -----------------------------------

     -----------------------------------
       E2 extrapolation:             F
       Conjugacy:                    T
       Micro CI relax:               T
       Canonical orbitals:           T
       Maximum iterations:          40
       Converge threshold:    1.00E-04
       Conjugacy resets:            20
       Initial levelshift:        0.10
     -----------------------------------

 Loading old vectors from job with title :

H2


   input molecular orbitals = ./H2.mos
  output molecular orbtials = ./H2.mos

       No. of determinants:           100


  Starting Orbital Energies
    -0.258662    -0.241271    -0.000015    -0.000004    -0.000004    -0.000000
    -0.000000    -0.000000    -0.000000    -0.000000     0.422949     0.602738
     0.823326     1.136209     1.136209     1.749677     1.837629     1.837629
     1.920736     2.051427     2.051427     2.053142     2.053142     2.061870
     2.090478     2.090478     2.090480     2.090480     2.898320     2.932292
     4.371237     4.371237     4.403745     4.445952     4.445952     4.454312
     5.943806     6.056317     6.056317     6.061156     6.070031     6.070031
     6.070752     6.070752     6.070752     6.070752     6.070759     6.070759
     6.070759     6.070759     8.126839     8.133572     8.135328     8.135328
     8.142346     8.142346     8.142765     8.142765     8.142765     8.142765
     9.646345     9.647243     9.707281     9.712550     9.712550     9.720099
     9.720099     9.748691    22.399546    22.455154

  Orbital Symmetry Irreps
a    a    a    a    a    a    a    a    a    a    a    a    a    a    a   
a    a    a    a    a    a    a    a    a    a    a    a    a    a    a   
a    a    a    a    a    a    a    a    a    a    a    a    a    a    a   
a    a    a    a    a    a    a    a    a    a    a    a    a    a    a   
a    a    a    a    a    a    a    a    a    a   

 Integral file          = ./H2.aoints.0
 Record size in doubles =  65536        No. of integs per rec  =  43688
 Max. records in memory =     99        Max. records in file   = 280144
 No. of bits per label  =      8        No. of bits per value  =     64


 #quartets = 1.426D+04 #integrals = 3.252D+05 #direct =  0.0% #cached =100.0%




          %%%%% MacroIteration   1 %%%%%


          Number of sigma calls:       13
                       o<<<<< (aa):             0.00
                       o<<<<< (bb):             0.00
                       o<<<<< (ab):             0.01
                       o<<<<< (total)           0.01
                       o<<<<< (aa) ff           0.00
                       o<<<<< (aa) gop          0.00
                       o<<<<< (aa) dot          0.00
                       o<<<<< (ab) str          0.00
                       o<<<<< (ab) gath         0.00
                       o<<<<< (ab) dotab        0.00
                       o<<<<< (ab) scat         0.00
                       o<<<<< (ab) sync         0.00
                       o<<<<< Density           0.00
                       o<<<<< Density one       0.00
                       o<<<<< Density two       0.00
                       o<<<<< Density ab        0.00
                       o<<<<< Spin adapt        0.00
                       o<<<<< Symm adapt        0.00

                       o<<<<< (ab) max sync:      0.00

           >>>| Valence CI:             -1.135105545322
           >>>| MCSCF energy:           -0.999970410187
           >>>| Gradient norm:          0.112523124D-03
     --- Warning:  480 Hessian diagonals < 0.05 ---

                              ----- Line search ------

        step       energy         lsg     num-lsg   num-lsh   lsrat    time
      ------- ---------------- --------- --------- --------- ------- --------
       0.0000      -0.99997041 -4.40D-09  0.00D+00  0.00D+00 0.0D+00      0.4

          Number of sigma calls:        8
                       o<<<<< (aa):             0.00
                       o<<<<< (bb):             0.00
                       o<<<<< (ab):             0.01
                       o<<<<< (total)           0.01
                       o<<<<< (aa) ff           0.00
                       o<<<<< (aa) gop          0.00
                       o<<<<< (aa) dot          0.00
                       o<<<<< (ab) str          0.00
                       o<<<<< (ab) gath         0.00
                       o<<<<< (ab) dotab        0.00
                       o<<<<< (ab) scat         0.00
                       o<<<<< (ab) sync         0.00
                       o<<<<< Density           0.00
                       o<<<<< Density one       0.00
                       o<<<<< Density two       0.00
                       o<<<<< Density ab        0.00
                       o<<<<< Spin adapt        0.00
                       o<<<<< Symm adapt        0.00

                       o<<<<< (ab) max sync:      0.00
       1.0000      -0.99997041 -1.28D-09 -1.28D-09  3.12D-09 2.9D-01      0.6

          Number of sigma calls:        7
                       o<<<<< (aa):             0.00
                       o<<<<< (bb):             0.00
                       o<<<<< (ab):             0.01
                       o<<<<< (total)           0.01
                       o<<<<< (aa) ff           0.00
                       o<<<<< (aa) gop          0.00
                       o<<<<< (aa) dot          0.00
                       o<<<<< (ab) str          0.00
                       o<<<<< (ab) gath         0.00
                       o<<<<< (ab) dotab        0.00
                       o<<<<< (ab) scat         0.00
                       o<<<<< (ab) sync         0.00
                       o<<<<< Density           0.00
                       o<<<<< Density one       0.00
                       o<<<<< Density two       0.00
                       o<<<<< Density ab        0.00
                       o<<<<< Spin adapt        0.00
                       o<<<<< Symm adapt        0.00

                       o<<<<< (ab) max sync:      0.00
       1.4093      -0.99997041  3.69D-12  3.69D-12  3.13D-09 8.4D-04      0.8
     --- Orbitals canonicalized ---



          %%%%% MacroIteration   2 %%%%%


          Number of sigma calls:       13
                       o<<<<< (aa):             0.00
                       o<<<<< (bb):             0.00
                       o<<<<< (ab):             0.01
                       o<<<<< (total)           0.01
                       o<<<<< (aa) ff           0.00
                       o<<<<< (aa) gop          0.00
                       o<<<<< (aa) dot          0.00
                       o<<<<< (ab) str          0.00
                       o<<<<< (ab) gath         0.00
                       o<<<<< (ab) dotab        0.00
                       o<<<<< (ab) scat         0.00
                       o<<<<< (ab) sync         0.00
                       o<<<<< Density           0.00
                       o<<<<< Density one       0.00
                       o<<<<< Density two       0.00
                       o<<<<< Density ab        0.00
                       o<<<<< Spin adapt        0.00
                       o<<<<< Symm adapt        0.00

                       o<<<<< (ab) max sync:      0.00

           >>>| Valence CI:             -1.135105548425
           >>>| MCSCF energy:           -0.999970413290
           >>>| Gradient norm:          0.219681419D-04




     ==============================
            MCSCF Converged
     ==============================



          Canonical Eigenvalues

              1      
    1   -0.2583
    2   -0.2416
    3   -0.0000
    4   -0.0000
    5   -0.0000
    6   -0.0000
    7   -0.0000
    8   -0.0000
    9   -0.0000
   10   -0.0000
   11    0.4237
   12    0.6013
   13    0.8216
   14    1.1360
   15    1.1360
   16    1.7484
   17    1.8379
   18    1.8379
   19    1.9221
   20    2.0515
   21    2.0515
   22    2.0531
   23    2.0531
   24    2.0609
   25    2.0905
   26    2.0905
   27    2.0905
   28    2.0905
   29    2.8977
   30    2.9318
   31    4.3710
   32    4.3710
   33    4.4058
   34    4.4462
   35    4.4462
   36    4.4513
   37    5.9438
   38    6.0563
   39    6.0563
   40    6.0612
   41    6.0700
   42    6.0700
   43    6.0708
   44    6.0708
   45    6.0708
   46    6.0708
   47    6.0708
   48    6.0708
   49    6.0708
   50    6.0708
   51    8.1268
   52    8.1335
   53    8.1353
   54    8.1353
   55    8.1424
   56    8.1424
   57    8.1428
   58    8.1428
   59    8.1428
   60    8.1428
   61    9.6459
   62    9.6470
   63    9.7085
   64    9.7124
   65    9.7124
   66    9.7202
   67    9.7202
   68    9.7475
   69   22.3988
   70   22.4526


          Converged CI vector

   Index           Coefficient          Config. Occupation
         1          0.72085293          1  1
        12         -0.69307447          2  2

          Number of sigma calls:        1
                       o<<<<< (aa):             0.00
                       o<<<<< (bb):             0.00
                       o<<<<< (ab):             0.00
                       o<<<<< (total)           0.00
                       o<<<<< (aa) ff           0.00
                       o<<<<< (aa) gop          0.00
                       o<<<<< (aa) dot          0.00
                       o<<<<< (ab) str          0.00
                       o<<<<< (ab) gath         0.00
                       o<<<<< (ab) dotab        0.00
                       o<<<<< (ab) scat         0.00
                       o<<<<< (ab) sync         0.00
                       o<<<<< Density           0.00
                       o<<<<< Density one       0.00
                       o<<<<< Density two       0.00
                       o<<<<< Density ab        0.00
                       o<<<<< Spin adapt        0.00
                       o<<<<< Symm adapt        0.00

                       o<<<<< (ab) max sync:      0.00



          Natural orbital occupation numbers

              1      
    1    1.0393
    2    0.9607
    3    0.0000
    4    0.0000
    5    0.0000
    6    0.0000
    7    0.0000
    8    0.0000
    9    0.0000
   10    0.0000


          Number of sigma calls:       13
                       o<<<<< (aa):             0.00
                       o<<<<< (bb):             0.00
                       o<<<<< (ab):             0.00
                       o<<<<< (total)           0.00
                       o<<<<< (aa) ff           0.00
                       o<<<<< (aa) gop          0.00
                       o<<<<< (aa) dot          0.00
                       o<<<<< (ab) str          0.00
                       o<<<<< (ab) gath         0.00
                       o<<<<< (ab) dotab        0.00
                       o<<<<< (ab) scat         0.00
                       o<<<<< (ab) sync         0.00
                       o<<<<< Density           0.00
                       o<<<<< Density one       0.00
                       o<<<<< Density two       0.00
                       o<<<<< Density ab        0.00
                       o<<<<< Spin adapt        0.00
                       o<<<<< Symm adapt        0.00

                       o<<<<< (ab) max sync:      0.00


       Final MCSCF results 
       ------------------- 

       Total MCSCF energy =     -0.999970413290
            Gradient norm =      2.2D-05

    CPU time for solution =      1.1s
   Wall time for solution =      1.3s



                        Analysis of MCSCF natural orbitals
                        ----------------------------------

 Vector    1  Occ=1.039258D+00  E=-2.583214D-01  Symmetry=a
              MO Center=  7.9D-15,  1.5D-12, -5.0D-15, r^2= 4.6D+00
   Bfn.  Coefficient  Atom+Function         Bfn.  Coefficient  Atom+Function  
  ----- ------------  ---------------      ----- ------------  ---------------
     3      0.345736  1 H  s                 38      0.345736  2 H  s          
     4      0.209983  1 H  s                 39      0.209983  2 H  s          
     2      0.178567  1 H  s                 37      0.178567  2 H  s          

 Vector    2  Occ=9.607045D-01  E=-2.416127D-01  Symmetry=a
              MO Center=  3.2D-14, -2.1D-12, -2.1D-14, r^2= 4.7D+00
   Bfn.  Coefficient  Atom+Function         Bfn.  Coefficient  Atom+Function  
  ----- ------------  ---------------      ----- ------------  ---------------
     3      0.354726  1 H  s                 38     -0.354726  2 H  s          
     4      0.209514  1 H  s                 39     -0.209514  2 H  s          
     2      0.181607  1 H  s                 37     -0.181607  2 H  s          

 Vector    3  Occ=2.516174D-05  E=-1.378419D-05  Symmetry=a
              MO Center=  3.3D-13,  3.7D-09, -1.9D-13, r^2= 4.8D+00
   Bfn.  Coefficient  Atom+Function         Bfn.  Coefficient  Atom+Function  
  ----- ------------  ---------------      ----- ------------  ---------------
     9      1.889420  1 H  py                44     -1.889420  2 H  py         
    12     -1.023282  1 H  py                47      1.023282  2 H  py         
    32     -0.795634  1 H  fyyy              67      0.795634  2 H  fyyy       
    27     -0.783143  1 H  fxxy              34     -0.783143  1 H  fyzz       
    62      0.783143  2 H  fxxy              69      0.783143  2 H  fyzz       

 Vector    4  Occ=6.110905D-06  E=-3.493278D-06  Symmetry=a
              MO Center= -1.0D-15, -2.1D-11,  9.0D-16, r^2= 4.8D+00
   Bfn.  Coefficient  Atom+Function         Bfn.  Coefficient  Atom+Function  
  ----- ------------  ---------------      ----- ------------  ---------------
     8      1.516655  1 H  px                43      1.516655  2 H  px         
    11     -0.904528  1 H  px                46     -0.904528  2 H  px         
    29     -0.662942  1 H  fxyy              64     -0.662942  2 H  fxyy       
    26     -0.639560  1 H  fxxx              31     -0.639560  1 H  fxzz       
    61     -0.639560  2 H  fxxx              66     -0.639560  2 H  fxzz       

 Vector    5  Occ=6.110905D-06  E=-3.493278D-06  Symmetry=a
              MO Center=  1.7D-14, -2.2D-11,  5.4D-14, r^2= 4.8D+00
   Bfn.  Coefficient  Atom+Function         Bfn.  Coefficient  Atom+Function  
  ----- ------------  ---------------      ----- ------------  ---------------
    10      1.516655  1 H  pz                45      1.516655  2 H  pz         
    13     -0.904528  1 H  pz                48     -0.904528  2 H  pz         
    33     -0.662942  1 H  fyyz              68     -0.662942  2 H  fyyz       
    28     -0.639560  1 H  fxxz              35     -0.639560  1 H  fzzz       
    63     -0.639560  2 H  fxxz              70     -0.639560  2 H  fzzz       

 Vector    6  Occ=5.830166D-08  E=-5.288885D-08  Symmetry=a
              MO Center= -3.3D-14,  3.8D-12, -5.3D-13, r^2= 3.6D+00
   Bfn.  Coefficient  Atom+Function         Bfn.  Coefficient  Atom+Function  
  ----- ------------  ---------------      ----- ------------  ---------------
    10      1.414419  1 H  pz                45     -1.414419  2 H  pz         
    28     -0.461805  1 H  fxxz              35     -0.461805  1 H  fzzz       
    63      0.461805  2 H  fxxz              70      0.461805  2 H  fzzz       
    24      0.383623  1 H  dyz               59      0.383623  2 H  dyz        
    33     -0.339236  1 H  fyyz              68      0.339236  2 H  fyyz       

 Vector    7  Occ=5.830166D-08  E=-5.288885D-08  Symmetry=a
              MO Center=  1.0D-12,  3.2D-12, -6.5D-14, r^2= 3.6D+00
   Bfn.  Coefficient  Atom+Function         Bfn.  Coefficient  Atom+Function  
  ----- ------------  ---------------      ----- ------------  ---------------
     8      1.414419  1 H  px                43     -1.414419  2 H  px         
    26     -0.461805  1 H  fxxx              31     -0.461805  1 H  fxzz       
    61      0.461805  2 H  fxxx              66      0.461805  2 H  fxzz       
    21      0.383623  1 H  dxy               56      0.383623  2 H  dxy        
    29     -0.339236  1 H  fxyy              64      0.339236  2 H  fxyy       

 Vector    8  Occ=3.279681D-08  E=-2.382532D-08  Symmetry=a
              MO Center= -3.3D-13,  2.6D-09,  1.4D-13, r^2= 4.4D+00
   Bfn.  Coefficient  Atom+Function         Bfn.  Coefficient  Atom+Function  
  ----- ------------  ---------------      ----- ------------  ---------------
     9      1.336547  1 H  py                44     -1.336547  2 H  py         
     2      0.589251  1 H  s                 37      0.589251  2 H  s          
    27     -0.555678  1 H  fxxy              34     -0.555678  1 H  fyzz       
    62      0.555678  2 H  fxxy              69      0.555678  2 H  fyzz       
     4     -0.523221  1 H  s                 39     -0.523221  2 H  s          

 Vector    9  Occ=2.020025D-08  E=-1.858657D-08  Symmetry=a
              MO Center= -1.5D-12, -1.3D-09,  8.7D-13, r^2= 3.7D+00
   Bfn.  Coefficient  Atom+Function         Bfn.  Coefficient  Atom+Function  
  ----- ------------  ---------------      ----- ------------  ---------------
     9      1.423810  1 H  py                44      1.423810  2 H  py         
     3     -0.915958  1 H  s                 38      0.915958  2 H  s          
     2      0.840495  1 H  s                 37     -0.840495  2 H  s          
    27     -0.520465  1 H  fxxy              34     -0.520465  1 H  fyzz       
    62     -0.520465  2 H  fxxy              69     -0.520465  2 H  fyzz       

 Vector   10  Occ=7.725800D-09  E=-8.892250D-09  Symmetry=a
              MO Center= -2.3D-14,  4.3D-09,  1.2D-14, r^2= 4.9D+00
   Bfn.  Coefficient  Atom+Function         Bfn.  Coefficient  Atom+Function  
  ----- ------------  ---------------      ----- ------------  ---------------
     9      2.973785  1 H  py                44     -2.973785  2 H  py         
    27     -1.311642  1 H  fxxy              34     -1.311642  1 H  fyzz       
    62      1.311642  2 H  fxxy              69      1.311642  2 H  fyzz       
    32     -1.014586  1 H  fyyy              67      1.014586  2 H  fyyy       
     6     -0.735443  1 H  py                41      0.735443  2 H  py         

 Vector   11  Occ=0.000000D+00  E= 4.237014D-01  Symmetry=a
              MO Center=  2.5D-12,  4.9D-10, -1.5D-12, r^2= 9.2D+00
   Bfn.  Coefficient  Atom+Function         Bfn.  Coefficient  Atom+Function  
  ----- ------------  ---------------      ----- ------------  ---------------
     3      2.535980  1 H  s                 38     -2.535980  2 H  s          
     4     -1.492236  1 H  s                 39      1.492236  2 H  s          
     9     -1.442051  1 H  py                44     -1.442051  2 H  py         
    12      0.661302  1 H  py                47      0.661302  2 H  py         
     2     -0.612722  1 H  s                 37      0.612722  2 H  s          

 Vector   12  Occ=0.000000D+00  E= 6.013050D-01  Symmetry=a
              MO Center= -6.5D-13,  6.3D-09,  4.1D-13, r^2= 6.9D+00
   Bfn.  Coefficient  Atom+Function         Bfn.  Coefficient  Atom+Function  
  ----- ------------  ---------------      ----- ------------  ---------------
     3      2.124709  1 H  s                 38     -2.124709  2 H  s          
     4     -1.186168  1 H  s                 39      1.186168  2 H  s          
     9      1.056907  1 H  py                44      1.056907  2 H  py         
    12     -0.800677  1 H  py                47     -0.800677  2 H  py         
     2     -0.581917  1 H  s                 37      0.581917  2 H  s          

 Vector   13  Occ=0.000000D+00  E= 8.216362D-01  Symmetry=a
              MO Center=  7.5D-14, -2.1D-08, -4.5D-14, r^2= 7.6D+00
   Bfn.  Coefficient  Atom+Function         Bfn.  Coefficient  Atom+Function  
  ----- ------------  ---------------      ----- ------------  ---------------
     3      3.811119  1 H  s                 38      3.811119  2 H  s          
     4     -1.573951  1 H  s                 39     -1.573951  2 H  s          
     2     -1.233690  1 H  s                 37     -1.233690  2 H  s          
    23     -0.633413  1 H  dyy               58     -0.633413  2 H  dyy        
    20     -0.579366  1 H  dxx               25     -0.579366  1 H  dzz        

 Vector   14  Occ=0.000000D+00  E= 1.136001D+00  Symmetry=a
              MO Center= -2.4D-14, -2.7D-11,  2.9D-15, r^2= 6.2D+00
   Bfn.  Coefficient  Atom+Function         Bfn.  Coefficient  Atom+Function  
  ----- ------------  ---------------      ----- ------------  ---------------
     8      4.948736  1 H  px                43     -4.948736  2 H  px         
    26     -1.924033  1 H  fxxx              31     -1.924033  1 H  fxzz       
    61      1.924033  2 H  fxxx              66      1.924033  2 H  fxzz       
    29     -1.906773  1 H  fxyy              64      1.906773  2 H  fxyy       
    11     -1.480066  1 H  px                46      1.480066  2 H  px         

 Vector   15  Occ=0.000000D+00  E= 1.136001D+00  Symmetry=a
              MO Center=  4.7D-15, -2.5D-11,  4.1D-14, r^2= 6.2D+00
   Bfn.  Coefficient  Atom+Function         Bfn.  Coefficient  Atom+Function  
  ----- ------------  ---------------      ----- ------------  ---------------
    10      4.948736  1 H  pz                45     -4.948736  2 H  pz         
    28     -1.924033  1 H  fxxz              35     -1.924033  1 H  fzzz       
    63      1.924033  2 H  fxxz              70      1.924033  2 H  fzzz       
    33     -1.906773  1 H  fyyz              68      1.906773  2 H  fyyz       
    13     -1.480066  1 H  pz                48      1.480066  2 H  pz         

 Vector   16  Occ=0.000000D+00  E= 1.748431D+00  Symmetry=a
              MO Center= -6.7D-13,  6.8D-09,  4.0D-13, r^2= 6.0D+00
   Bfn.  Coefficient  Atom+Function         Bfn.  Coefficient  Atom+Function  
  ----- ------------  ---------------      ----- ------------  ---------------
     9      4.844563  1 H  py                44      4.844563  2 H  py         
     3      2.102662  1 H  s                 38     -2.102662  2 H  s          
    27     -1.869569  1 H  fxxy              32     -1.861991  1 H  fyyy       
    34     -1.869569  1 H  fyzz              62     -1.869569  2 H  fxxy       
    67     -1.861991  2 H  fyyy              69     -1.869569  2 H  fyzz       

 Vector   17  Occ=0.000000D+00  E= 1.837891D+00  Symmetry=a
              MO Center= -6.6D-14,  5.4D-11,  2.4D-15, r^2= 5.1D+00
   Bfn.  Coefficient  Atom+Function         Bfn.  Coefficient  Atom+Function  
  ----- ------------  ---------------      ----- ------------  ---------------
     8      6.220256  1 H  px                43      6.220256  2 H  px         
    26     -2.427376  1 H  fxxx              29     -2.426380  1 H  fxyy       
    31     -2.427376  1 H  fxzz              61     -2.427376  2 H  fxxx       
    64     -2.426380  2 H  fxyy              66     -2.427376  2 H  fxzz       
     5     -1.644140  1 H  px                40     -1.644140  2 H  px         

 Vector   18  Occ=0.000000D+00  E= 1.837891D+00  Symmetry=a
              MO Center= -1.9D-15,  5.4D-11,  3.9D-14, r^2= 5.1D+00
   Bfn.  Coefficient  Atom+Function         Bfn.  Coefficient  Atom+Function  
  ----- ------------  ---------------      ----- ------------  ---------------
    10      6.220256  1 H  pz                45      6.220256  2 H  pz         
    28     -2.427376  1 H  fxxz              33     -2.426380  1 H  fyyz       
    35     -2.427376  1 H  fzzz              63     -2.427376  2 H  fxxz       
    68     -2.426380  2 H  fyyz              70     -2.427376  2 H  fzzz       
     7     -1.644140  1 H  pz                42     -1.644140  2 H  pz         

 Vector   19  Occ=0.000000D+00  E= 1.922141D+00  Symmetry=a
              MO Center= -1.1D-14, -3.8D-09,  1.0D-14, r^2= 6.0D+00
   Bfn.  Coefficient  Atom+Function         Bfn.  Coefficient  Atom+Function  
  ----- ------------  ---------------      ----- ------------  ---------------
     9      4.835135  1 H  py                44     -4.835135  2 H  py         
    32     -1.898460  1 H  fyyy              67      1.898460  2 H  fyyy       
    27     -1.888096  1 H  fxxy              34     -1.888096  1 H  fyzz       
    62      1.888096  2 H  fxxy              69      1.888096  2 H  fyzz       
     6     -1.280953  1 H  py                41      1.280953  2 H  py         

 Vector   20  Occ=0.000000D+00  E= 2.051464D+00  Symmetry=a
              MO Center= -8.9D-15, -4.5D-09,  1.3D-14, r^2= 5.2D+00
   Bfn.  Coefficient  Atom+Function         Bfn.  Coefficient  Atom+Function  
  ----- ------------  ---------------      ----- ------------  ---------------
    24      1.296137  1 H  dyz               59     -1.296137  2 H  dyz        
    10     -0.529935  1 H  pz                45     -0.529935  2 H  pz         
    33      0.207749  1 H  fyyz              68      0.207749  2 H  fyyz       
    28      0.206307  1 H  fxxz              35      0.206307  1 H  fzzz       
    63      0.206307  2 H  fxxz              70      0.206307  2 H  fzzz       


 Wrote Lagrangian and 1- and 2-particle density matrices to ./H2.mcpdm


     Multipole analysis of the density
     ---------------------------------

     L   x y z        total        nuclear
     -   - - -        -----        -------
     0   0 0 0     -0.000000      2.000000

     1   1 0 0     -0.000000      0.000000
     1   0 1 0      0.000000      0.000000
     1   0 0 1      0.000000      0.000000

     2   2 0 0     -1.999413      0.000000
     2   1 1 0      0.000000      0.000000
     2   1 0 1     -0.000000      0.000000
     2   0 2 0     -1.985330     27.380000
     2   0 1 1     -0.000000      0.000000
     2   0 0 2     -1.999413      0.000000


  Mulliken analysis of the total density
  --------------------------------------

    Atom       Charge   Shell Charges
 -----------   ------   -------------------------------------------------------
    1 H    1     1.00   0.05  0.22  0.48  0.25  0.00 -0.00  0.00  0.00  0.00  0.00
    2 H    1     1.00   0.05  0.22  0.48  0.25  0.00 -0.00  0.00  0.00  0.00  0.00

    Mulliken analysis of the active space density
    ---------------------------------------------

    Atom       Charge   Shell Charges
 -----------   ------   -------------------------------------------------------
    1 H    1     1.00   0.05  0.22  0.48  0.25  0.00 -0.00  0.00  0.00  0.00  0.00
    2 H    1     1.00   0.05  0.22  0.48  0.25  0.00 -0.00  0.00  0.00  0.00  0.00

 Parallel integral file used       8 records with       0 large values


 Task  times  cpu:        1.1s     wall:        1.4s


                                NWChem Input Module
                                -------------------


                                 NWChem SCF Module
                                 -----------------


                                        H2



  ao basis        = "ao basis"
  functions       =    70
  atoms           =     2
  closed shells   =     1
  open shells     =     0
  charge          =   0.00
  wavefunction    = RHF 
  input vectors   = ./H2.mos
  output vectors  = ./H2-7.40.mos
  use symmetry    = F
  symmetry adapt  = F


 Summary of "ao basis" -> "ao basis" (cartesian)
 ------------------------------------------------------------------------------
       Tag                 Description            Shells   Functions and Types
 ---------------- ------------------------------  ------  ---------------------
 H                          cc-pVQZ                 10       35   4s3p2d1f



 Forming initial guess at       1.4s


 Loading old vectors from job with title :

H2


 Starting SCF solution at       1.4s



 ----------------------------------------------
         Quadratically convergent ROHF

 Convergence threshold     :          1.000E-04
 Maximum no. of iterations :           30
 Final Fock-matrix accuracy:          1.000E-07
 ----------------------------------------------


 Integral file          = ./H2.aoints.0
 Record size in doubles =  65536        No. of integs per rec  =  43688
 Max. records in memory =     99        Max. records in file   = 280171
 No. of bits per label  =      8        No. of bits per value  =     64


 #quartets = 1.318D+04 #integrals = 2.835D+05 #direct =  0.0% #cached =100.0%



       Final RHF  results 
       ------------------ 

         Total SCF energy =     -0.764078241311
      One-electron energy =     -1.275957294528
      Two-electron energy =      0.376743918082
 Nuclear repulsion energy =      0.135135135135

        Time for solution =      0.0s


             Final eigenvalues
             -----------------

              1      
    1   -0.2583
    2   -0.2416
    3   -0.0000
    4   -0.0000
    5   -0.0000
    6   -0.0000
    7   -0.0000
    8   -0.0000
    9   -0.0000
   10   -0.0000
   11    0.4237

                       ROHF Final Molecular Orbital Analysis
                       -------------------------------------

 Vector    1  Occ=2.000000D+00  E=-2.583214D-01
              MO Center=  7.9D-15,  1.5D-12, -5.0D-15, r^2= 4.6D+00
   Bfn.  Coefficient  Atom+Function         Bfn.  Coefficient  Atom+Function  
  ----- ------------  ---------------      ----- ------------  ---------------
     3      0.345736  1 H  s                 38      0.345736  2 H  s          
     4      0.209983  1 H  s                 39      0.209983  2 H  s          
     2      0.178567  1 H  s                 37      0.178567  2 H  s          

 Vector    2  Occ=0.000000D+00  E=-2.416127D-01
              MO Center=  3.2D-14, -2.1D-12, -2.1D-14, r^2= 4.7D+00
   Bfn.  Coefficient  Atom+Function         Bfn.  Coefficient  Atom+Function  
  ----- ------------  ---------------      ----- ------------  ---------------
     3      0.354726  1 H  s                 38     -0.354726  2 H  s          
     4      0.209514  1 H  s                 39     -0.209514  2 H  s          
     2      0.181607  1 H  s                 37     -0.181607  2 H  s          

 Vector    3  Occ=0.000000D+00  E=-1.378419D-05
              MO Center=  3.3D-13,  3.7D-09, -1.9D-13, r^2= 4.8D+00
   Bfn.  Coefficient  Atom+Function         Bfn.  Coefficient  Atom+Function  
  ----- ------------  ---------------      ----- ------------  ---------------
     9      1.889420  1 H  py                44     -1.889420  2 H  py         
    12     -1.023282  1 H  py                47      1.023282  2 H  py         
    32     -0.795634  1 H  fyyy              67      0.795634  2 H  fyyy       
    27     -0.783143  1 H  fxxy              34     -0.783143  1 H  fyzz       
    62      0.783143  2 H  fxxy              69      0.783143  2 H  fyzz       

 Vector    4  Occ=0.000000D+00  E=-3.493278D-06
              MO Center= -1.0D-15, -2.1D-11,  9.0D-16, r^2= 4.8D+00
   Bfn.  Coefficient  Atom+Function         Bfn.  Coefficient  Atom+Function  
  ----- ------------  ---------------      ----- ------------  ---------------
     8      1.516655  1 H  px                43      1.516655  2 H  px         
    11     -0.904528  1 H  px                46     -0.904528  2 H  px         
    29     -0.662942  1 H  fxyy              64     -0.662942  2 H  fxyy       
    26     -0.639560  1 H  fxxx              31     -0.639560  1 H  fxzz       
    61     -0.639560  2 H  fxxx              66     -0.639560  2 H  fxzz       

 Vector    5  Occ=0.000000D+00  E=-3.493278D-06
              MO Center=  1.7D-14, -2.2D-11,  5.4D-14, r^2= 4.8D+00
   Bfn.  Coefficient  Atom+Function         Bfn.  Coefficient  Atom+Function  
  ----- ------------  ---------------      ----- ------------  ---------------
    10      1.516655  1 H  pz                45      1.516655  2 H  pz         
    13     -0.904528  1 H  pz                48     -0.904528  2 H  pz         
    33     -0.662942  1 H  fyyz              68     -0.662942  2 H  fyyz       
    28     -0.639560  1 H  fxxz              35     -0.639560  1 H  fzzz       
    63     -0.639560  2 H  fxxz              70     -0.639560  2 H  fzzz       

 Vector    6  Occ=0.000000D+00  E=-5.288885D-08
              MO Center= -3.3D-14,  3.8D-12, -5.3D-13, r^2= 3.6D+00
   Bfn.  Coefficient  Atom+Function         Bfn.  Coefficient  Atom+Function  
  ----- ------------  ---------------      ----- ------------  ---------------
    10      1.414419  1 H  pz                45     -1.414419  2 H  pz         
    28     -0.461805  1 H  fxxz              35     -0.461805  1 H  fzzz       
    63      0.461805  2 H  fxxz              70      0.461805  2 H  fzzz       
    24      0.383623  1 H  dyz               59      0.383623  2 H  dyz        
    33     -0.339236  1 H  fyyz              68      0.339236  2 H  fyyz       

 Vector    7  Occ=0.000000D+00  E=-5.288885D-08
              MO Center=  1.0D-12,  3.2D-12, -6.5D-14, r^2= 3.6D+00
   Bfn.  Coefficient  Atom+Function         Bfn.  Coefficient  Atom+Function  
  ----- ------------  ---------------      ----- ------------  ---------------
     8      1.414419  1 H  px                43     -1.414419  2 H  px         
    26     -0.461805  1 H  fxxx              31     -0.461805  1 H  fxzz       
    61      0.461805  2 H  fxxx              66      0.461805  2 H  fxzz       
    21      0.383623  1 H  dxy               56      0.383623  2 H  dxy        
    29     -0.339236  1 H  fxyy              64      0.339236  2 H  fxyy       

 Vector    8  Occ=0.000000D+00  E=-2.382532D-08
              MO Center= -3.3D-13,  2.6D-09,  1.4D-13, r^2= 4.4D+00
   Bfn.  Coefficient  Atom+Function         Bfn.  Coefficient  Atom+Function  
  ----- ------------  ---------------      ----- ------------  ---------------
     9      1.336547  1 H  py                44     -1.336547  2 H  py         
     2      0.589251  1 H  s                 37      0.589251  2 H  s          
    27     -0.555678  1 H  fxxy              34     -0.555678  1 H  fyzz       
    62      0.555678  2 H  fxxy              69      0.555678  2 H  fyzz       
     4     -0.523221  1 H  s                 39     -0.523221  2 H  s          

 Vector    9  Occ=0.000000D+00  E=-1.858657D-08
              MO Center= -1.5D-12, -1.3D-09,  8.7D-13, r^2= 3.7D+00
   Bfn.  Coefficient  Atom+Function         Bfn.  Coefficient  Atom+Function  
  ----- ------------  ---------------      ----- ------------  ---------------
     9      1.423810  1 H  py                44      1.423810  2 H  py         
     3     -0.915958  1 H  s                 38      0.915958  2 H  s          
     2      0.840495  1 H  s                 37     -0.840495  2 H  s          
    27     -0.520465  1 H  fxxy              34     -0.520465  1 H  fyzz       
    62     -0.520465  2 H  fxxy              69     -0.520465  2 H  fyzz       

 Vector   10  Occ=0.000000D+00  E=-8.892250D-09
              MO Center= -2.3D-14,  4.3D-09,  1.2D-14, r^2= 4.9D+00
   Bfn.  Coefficient  Atom+Function         Bfn.  Coefficient  Atom+Function  
  ----- ------------  ---------------      ----- ------------  ---------------
     9      2.973785  1 H  py                44     -2.973785  2 H  py         
    27     -1.311642  1 H  fxxy              34     -1.311642  1 H  fyzz       
    62      1.311642  2 H  fxxy              69      1.311642  2 H  fyzz       
    32     -1.014586  1 H  fyyy              67      1.014586  2 H  fyyy       
     6     -0.735443  1 H  py                41      0.735443  2 H  py         

 Vector   11  Occ=0.000000D+00  E= 4.237014D-01
              MO Center=  2.5D-12,  4.9D-10, -1.5D-12, r^2= 9.2D+00
   Bfn.  Coefficient  Atom+Function         Bfn.  Coefficient  Atom+Function  
  ----- ------------  ---------------      ----- ------------  ---------------
     3      2.535980  1 H  s                 38     -2.535980  2 H  s          
     4     -1.492236  1 H  s                 39      1.492236  2 H  s          
     9     -1.442051  1 H  py                44     -1.442051  2 H  py         
    12      0.661302  1 H  py                47      0.661302  2 H  py         
     2     -0.612722  1 H  s                 37      0.612722  2 H  s          

 Vector   12  Occ=0.000000D+00  E= 6.013050D-01
              MO Center= -6.5D-13,  6.3D-09,  4.1D-13, r^2= 6.9D+00
   Bfn.  Coefficient  Atom+Function         Bfn.  Coefficient  Atom+Function  
  ----- ------------  ---------------      ----- ------------  ---------------
     3      2.124709  1 H  s                 38     -2.124709  2 H  s          
     4     -1.186168  1 H  s                 39      1.186168  2 H  s          
     9      1.056907  1 H  py                44      1.056907  2 H  py         
    12     -0.800677  1 H  py                47     -0.800677  2 H  py         
     2     -0.581917  1 H  s                 37      0.581917  2 H  s          


 center of mass
 --------------
 x =   0.00000000 y =   0.00000000 z =   0.00000000

 moments of inertia (a.u.)
 ------------------
          27.594248500000           0.000000000000           0.000000000000
           0.000000000000           0.000000000000           0.000000000000
           0.000000000000           0.000000000000          27.594248500000

  Mulliken analysis of the total density
  --------------------------------------

    Atom       Charge   Shell Charges
 -----------   ------   -------------------------------------------------------
    1 H    1     1.00   0.05  0.21  0.48  0.26 -0.00  0.00 -0.00  0.00  0.00 -0.00
    2 H    1     1.00   0.05  0.21  0.48  0.26 -0.00  0.00 -0.00  0.00  0.00 -0.00

       Multipole analysis of the density wrt the origin
       ------------------------------------------------

     L   x y z        total         open         nuclear
     -   - - -        -----         ----         -------
     0   0 0 0     -0.000000      0.000000      2.000000

     1   1 0 0     -0.000000      0.000000      0.000000
     1   0 1 0     -0.000000      0.000000      0.000000
     1   0 0 1      0.000000      0.000000      0.000000

     2   2 0 0     -2.036243      0.000000      0.000000
     2   1 1 0     -0.000000      0.000000      0.000000
     2   1 0 1      0.000000      0.000000      0.000000
     2   0 2 0     -1.693125      0.000000     27.380000
     2   0 1 1      0.000000      0.000000      0.000000
     2   0 0 2     -2.036243      0.000000      0.000000


 Parallel integral file used       7 records with       0 large values

                   NWChem Extensible Many-Electron Theory Module
                   ---------------------------------------------

              ======================================================
                   This portion of the program was automatically
                  generated by a Tensor Contraction Engine (TCE).
                  The development of this portion of the program
                 and TCE was supported by US Department of Energy,
                Office of Science, Office of Basic Energy Science.
                      TCE is a product of Battelle and PNNL.
              Please cite: S.Hirata, J.Phys.Chem.A 107, 9887 (2003).
              ======================================================

                                        H2


            General Information
            -------------------
      Number of processors :     1
         Wavefunction type : Restricted Hartree-Fock
          No. of electrons :     2
           Alpha electrons :     1
            Beta electrons :     1
           No. of orbitals :   140
            Alpha orbitals :    70
             Beta orbitals :    70
        Alpha frozen cores :     0
         Beta frozen cores :     0
     Alpha frozen virtuals :     0
      Beta frozen virtuals :     0
         Spin multiplicity : singlet 
    Number of AO functions :    70
       Number of AO shells :    20
        Use of symmetry is : off
      Symmetry adaption is : off
         Schwarz screening : 0.10D-09

          Correlation Information
          -----------------------
          Calculation type : Coupled-cluster singles & doubles                           
   Perturbative correction : none                                                        
            Max iterations :      300
        Residual threshold : 0.10D-06
     T(0) DIIS level shift : 0.80D+00
     L(0) DIIS level shift : 0.00D+00
     T(1) DIIS level shift : 0.00D+00
     L(1) DIIS level shift : 0.00D+00
     T(R) DIIS level shift : 0.00D+00
     T(I) DIIS level shift : 0.00D+00
   CC-T/L Amplitude update :  5-th order DIIS
                I/O scheme : Global Array Library
        L-threshold :  0.10D-06
        EOM-threshold :  0.10D-06
 no EOMCCSD initial starts read in
 TCE RESTART OPTIONS
 READ_INT:   F
 WRITE_INT:  F
 READ_TA:    F
 WRITE_TA:   F
 READ_XA:    F
 WRITE_XA:   F
 READ_IN3:   F
 WRITE_IN3:  F
 SLICE:      F
 D4D5:       F
 quantumc:   F
 qrotation:  F
 pwtce:      F
 qducc:      T
 nacto:                         0
 nrotv:                         0
 nrot:                          0

            Memory Information
            ------------------
          Available GA space size is    1610607836 doubles
          Available MA space size is    1610610644 doubles

 Maximum block size        32 doubles

 tile_dim =     23

 Block   Spin    Irrep     Size     Offset   Alpha
 -------------------------------------------------
   1    alpha     a      1 doubles       0       1
   2    beta      a      1 doubles       1       1
   3    alpha     a     23 doubles       2       3
   4    alpha     a     23 doubles      25       4
   5    alpha     a     23 doubles      48       5
   6    beta      a     23 doubles      71       3
   7    beta      a     23 doubles      94       4
   8    beta      a     23 doubles     117       5

 Global array virtual files algorithm will be used

 Parallel file system coherency ......... OK

 Integral file          = ./H2.aoints.0
 Record size in doubles =  65536        No. of integs per rec  =  43688
 Max. records in memory =     99        Max. records in file   = 280171
 No. of bits per label  =      8        No. of bits per value  =     64


 #quartets = 1.436D+04 #integrals = 3.325D+05 #direct =  0.0% #cached =100.0%


 Fock matrix recomputed
 1-e file size   =             4900
 1-e file name   = ./H2.f1
 Cpu & wall time / sec            0.0            0.0
 4-electron integrals stored in orbital form

 v2    file size   =          6102085
 4-index algorithm nr.  13 is used
 imaxsize =       30
 imaxsize ichop =        0
 Cpu & wall time / sec            1.7            1.8
 T1-number-of-tasks                    3

 t1 file size   =               69
 t1 file name   = ./H2.t1
 t1 file handle =       -998
 T2-number-of-boxes                   15

 t2 file size   =             7935
 t2 file name   = ./H2.t2
 t2 file handle =       -996
CCSD iterations
 ---------------------------------------------------------
 Iter          Residuum       Correlation     Cpu    Wall 
 ---------------------------------------------------------
NEW TASK SCHEDULING
CCSD_T1_NTS --- OK
CCSD_T2_NTS --- OK
    1   9.7395613194253  -0.7957168159123     0.1     0.1
    2   9.2336023878047  -0.9382791733656     0.1     0.1
    3   3.7612595050188   0.0631185002175     0.1     0.1
    4   4.1952471952818  -0.6776467259765     0.1     0.1
    5   5.6945747071223   0.1240640808648     0.0     0.1
 MICROCYCLE DIIS UPDATE:                    5                    5
    6   2.4511439535227  -0.5294416466953     0.1     0.1
    7   1.7107552984540  -0.5076177662023     0.1     0.1
    8   1.4039213418996  -0.2713478526544     0.1     0.1
    9   1.8462011286639  -0.3773742203180     0.1     0.1
   10   2.3033746972439  -0.1577790970677     0.1     0.1
 MICROCYCLE DIIS UPDATE:                   10                    5
   11   0.4453919238546  -0.3266844563635     0.1     0.1
   12   0.4239015969151  -0.3090118330515     0.0     0.1
   13   0.4519050712041  -0.2763493991790     0.1     0.1
   14   0.5468320623931  -0.2807893492195     0.1     0.1
   15   0.6637621274146  -0.2498576546275     0.1     0.1
 MICROCYCLE DIIS UPDATE:                   15                    5
   16   0.0335235119368  -0.2458812188254     0.1     0.1
   17   0.0243194334853  -0.2447528368707     0.1     0.1
   18   0.0234722785958  -0.2420491035904     0.1     0.1
   19   0.0275444157561  -0.2416931283584     0.1     0.1
   20   0.0365994845219  -0.2392928328120     0.1     0.1
 MICROCYCLE DIIS UPDATE:                   20                    5
   21   0.0045830408182  -0.2370411757163     0.1     0.1
   22   0.0028683936527  -0.2367717485387     0.2     0.2
   23   0.0025125795332  -0.2365920038229     0.1     0.1
   24   0.0025967704936  -0.2363782711341     0.0     0.1
   25   0.0030158416329  -0.2363510393056     0.1     0.1
 MICROCYCLE DIIS UPDATE:                   25                    5
   26   0.0005668974247  -0.2360263382417     0.1     0.1
   27   0.0003783166073  -0.2360053746547     0.1     0.1
   28   0.0003158187817  -0.2359860197977     0.1     0.1
   29   0.0003346567434  -0.2359672274572     0.1     0.1
   30   0.0003927684403  -0.2359565468345     0.1     0.1
 MICROCYCLE DIIS UPDATE:                   30                    5
   31   0.0000792842122  -0.2359198515902     0.1     0.1
   32   0.0000483324362  -0.2359141246907     0.1     0.1
   33   0.0000338095763  -0.2359107002855     0.1     0.1
   34   0.0000257244899  -0.2359073027242     0.1     0.1
   35   0.0000221376671  -0.2359057230367     0.0     0.1
 MICROCYCLE DIIS UPDATE:                   35                    5
   36   0.0000120030480  -0.2359006823305     0.1     0.1
   37   0.0000079289209  -0.2359003035776     0.1     0.1
   38   0.0000060080353  -0.2358997470862     0.1     0.1
   39   0.0000054353379  -0.2358994222141     0.1     0.1
   40   0.0000053106087  -0.2358990635293     0.1     0.1
 MICROCYCLE DIIS UPDATE:                   40                    5
   41   0.0000017935255  -0.2358982746949     0.1     0.1
   42   0.0000010857309  -0.2358981164225     0.0     0.2
   43   0.0000008018953  -0.2358980707974     0.0     0.1
   44   0.0000006198599  -0.2358979746563     0.1     0.1
   45   0.0000005886240  -0.2358979596293     0.1     0.1
 MICROCYCLE DIIS UPDATE:                   45                    5
   46   0.0000002734763  -0.2358978469561     0.1     0.1
   47   0.0000001864614  -0.2358978391283     0.1     0.1
   48   0.0000001413105  -0.2358978243379     0.1     0.1
   49   0.0000001280798  -0.2358978176017     0.1     0.1
   50   0.0000001239732  -0.2358978080908     0.1     0.1
 MICROCYCLE DIIS UPDATE:                   50                    5
   51   0.0000000423336  -0.2358977895184     0.1     0.1
 -----------------------------------------------------------------
 Iterations converged
 CCSD correlation energy / hartree =        -0.235897789518432
 CCSD total energy / hartree       =        -0.999976030829862

 Singles contributions

 Doubles contributions
     2a   (alpha)     2a   (beta ) ---     1a   (alpha)     1a   (beta )       -0.9619501881
 Ground state specification:
 exp(T)|Ref>~(1+T)|Ref>
 ------- a(p)+/a(q) strings ----------

 singles norm

 doubles norm

 Reference string
  0.72068479989794443      :(1a)+ (1b)+ |0>

 Singles strings

 Doubles strings
 -0.69326287885336813      :(2a)+ (2b)+ (1b)  (1a)  (1a)+ (1b)+ |0>
 -------------------------------------
 enrep_tce =   0.13513513513513511     
  EHF(total)         =        -0.76407824
  Shift (HFtot-HFA)  =         0.00000000
 ALL OCCUPIED ORBITALS ARE ACTIVE IN DUCC --> NO SHIFT
 Number of active orbitals                   10
 Number of active alpha electrons                    1
 Number of active beta electrons                    1
  nos                     2
  nvs                   138
 noas                     1
 nobs                     1
 nvas                    69
 nvbs                    69
 nactv                     9
 DUCC MODEL =                     6
 NONHF =  T
 F-T1 correlation    =    1.9652270549443042E-005
 V-T1-T1 correlation =    7.4335770098527985E-010
 V-T2 correlation    =  -0.23591744253233166     
 Total correlation   =  -0.23589778951842452     
 F-T1(Ext) correlation         =   -2.4090089367282379E-007
 V-T1(Ext)-T1(Ext) correlation =    1.3337993057564448E-011
 V-T2(Ext) correlation         =    6.2786200603668339E-005
 Total Ext correlation         =    6.2545313047988578E-005
1-BODY TIME =   30.804 SECONDS.
  HHHH TIME =   25.167 SECONDS.
  PPPP TIME =   36.069 SECONDS.
  HHHP TIME =    2.431 SECONDS.
  PPPH TIME =    2.707 SECONDS.
  HPHP TIME =    4.247 SECONDS.
  HHPP TIME =    2.375 SECONDS.
 ONE-BODY UNITARY CHECK
 TWO-BODY UNITARY CHECK
 TWO-BODY ANTISYMMETRY CHECK
 TRANSFORMED ~FOCK~ MATRIX
    1    1        -0.2610998748
    1    3         0.0169482737
    1    8         0.0834072460
    1    9         0.0000000003
    1   10        -0.0401553623
    2    2        -0.1169607584
    2    9         0.0798420960
    2   10         0.0000000004
    3    1         0.0169482737
    3    3         0.5226675730
    3    8        -0.1089199409
    3    9         0.0000000007
    3   10        -0.1868535130
    4    4         0.5734293712
    5    5         0.5734293712
    6    6         1.3941328636
    7    7         1.3941328636
    8    1         0.0834072460
    8    3        -0.1089199409
    8    8         0.9061932517
    8    9        -0.0000000038
    8   10         0.4248802602
    9    1         0.0000000003
    9    2         0.0798420960
    9    3         0.0000000007
    9    8        -0.0000000038
    9    9         1.4106777540
    9   10        -0.0000000020
   10    1        -0.0401553623
   10    2         0.0000000004
   10    3        -0.1868535130
   10    8         0.4248802602
   10    9        -0.0000000020
   10   10         2.0439944505
 begin_one_electron_integrals
    1    1        -0.6379786459
    1    3         0.0203525639
    1    8        -0.0004188405
    1   10        -0.0004109430
    2    2        -0.6321083069
    2    9        -0.0011293839
    3    1         0.0203525639
    3    3        -0.0385671985
    3    8        -0.0892424217
    3    9         0.0000000003
    3   10        -0.1103084013
    4    4         0.0084507311
    5    5         0.0084507311
    6    6         0.6791460243
    7    7         0.6791460243
    8    1        -0.0004188405
    8    3        -0.0892424217
    8    8         0.2799708382
    8    9        -0.0000000034
    8   10         0.4130769159
    9    2        -0.0011293839
    9    3         0.0000000003
    9    8        -0.0000000034
    9    9         0.7039244787
    9   10        -0.0000000023
   10    1        -0.0004109430
   10    3        -0.1103084013
   10    8         0.4130769159
   10    9        -0.0000000023
   10   10         1.3597838763
 end_one_electron_integrals
 begin_two_electron_integrals
    1    1    1    1        0.3768787710
    1    1    1    3       -0.0034042901
    1    1    1    8        0.0838260865
    1    1    1    9        0.0000000003
    1    1    1   10       -0.0397444193
    1    2    1    2        0.2450189587
    1    2    1    8       -0.0000000001
    1    2    1    9        0.0761994775
    1    2    1   10        0.0000000003
    1    3    1    1       -0.0034042901
    1    3    1    3        0.0400808031
    1    3    1    8       -0.0051146219
    1    3    1   10       -0.0139793424
    1    4    1    4        0.0400833965
    1    5    1    5        0.0400833965
    1    6    1    6        0.0584080882
    1    7    1    7        0.0584080882
    1    8    1    1        0.0838260865
    1    8    1    2       -0.0000000001
    1    8    1    3       -0.0051146219
    1    8    1    8        0.0615514486
    1    8    1   10       -0.0204215968
    1    9    1    1        0.0000000003
    1    9    1    2        0.0761994775
    1    9    1    9        0.0678981970
    1    9    1   10        0.0000000002
    1   10    1    1       -0.0397444193
    1   10    1    2        0.0000000003
    1   10    1    3       -0.0139793424
    1   10    1    8       -0.0204215968
    1   10    1    9        0.0000000002
    1   10    1   10        0.0372216355
    1    1    2    2        0.3800469172
    1    1    2    9        0.0786548677
    1    1    2   10        0.0000000004
    1    2    2    1        0.2449462859
    1    2    2    3        0.0176568007
    1    2    2    8        0.0869049798
    1    2    2    9        0.0000000003
    1    2    2   10       -0.0420026209
    1    3    2    2       -0.0019791485
    1    3    2    9       -0.0064213962
    1    3    2   10       -0.0000000002
    1    4    2    6        0.0137178856
    1    4    2    7       -0.0442665009
    1    5    2    6       -0.0442665009
    1    5    2    7       -0.0137178856
    1    6    2    4        0.0131135381
    1    6    2    5       -0.0423163209
    1    7    2    4       -0.0423163209
    1    7    2    5       -0.0131135381
    1    8    2    1       -0.0000000001
    1    8    2    2        0.0859060084
    1    8    2    8       -0.0000000001
    1    8    2    9        0.0645445020
    1    8    2   10        0.0000000004
    1    9    2    1        0.0763382554
    1    9    2    2        0.0000000003
    1    9    2    3       -0.0055274066
    1    9    2    8        0.0643675953
    1    9    2    9        0.0000000002
    1    9    2   10       -0.0224253161
    1   10    2    1        0.0000000003
    1   10    2    2       -0.0411815181
    1   10    2    3       -0.0000000001
    1   10    2    8        0.0000000004
    1   10    2    9       -0.0221635590
    1   10    2   10       -0.0000000001
    1    1    3    1       -0.0034042901
    1    1    3    3        0.3004898785
    1    1    3    8       -0.0123837317
    1    1    3    9        0.0000000002
    1    1    3   10       -0.0452571152
    1    2    3    2        0.0176606308
    1    2    3    3       -0.0000000004
    1    2    3    8       -0.0000000001
    1    2    3    9       -0.0192072241
    1    2    3   10       -0.0000000006
    1    3    3    1        0.0397449855
    1    3    3    3       -0.0199612530
    1    3    3    8       -0.0044951065
    1    3    3    9       -0.0000000001
    1    3    3   10        0.0323006815
    1    4    3    4       -0.0059864846
    1    5    3    5       -0.0059864846
    1    6    3    6       -0.0105115821
    1    7    3    7       -0.0105115821
    1    8    3    1       -0.0050899443
    1    8    3    3        0.0347277903
    1    8    3    8       -0.0128415686
    1    8    3    9        0.0000000002
    1    8    3   10       -0.0280140680
    1    9    3    2       -0.0055397925
    1    9    3    9       -0.0128675664
    1    9    3   10       -0.0000000001
    1   10    3    1       -0.0139691187
    1   10    3    2       -0.0000000001
    1   10    3    3        0.0029934114
    1   10    3    8       -0.0058065056
    1   10    3   10       -0.0031279813
    1    1    4    4        0.3024574720
    1    2    4    6        0.0495095531
    1    2    4    7       -0.1597633007
    1    3    4    4       -0.0153293930
    1    4    4    1        0.0399363038
    1    4    4    3       -0.0059871576
    1    4    4    8       -0.0154491512
    1    4    4   10       -0.0040975523
    1    6    4    2        0.0131250627
    1    6    4    9       -0.0035184599
    1    7    4    2       -0.0423535097
    1    7    4    9        0.0113537839
    1    8    4    4        0.0317394855
    1    9    4    4        0.0000000001
    1    9    4    6        0.0115656248
    1    9    4    7       -0.0373213306
    1   10    4    4       -0.0152497453
    1   10    4    7       -0.0000000002
    1    1    5    5        0.3024574720
    1    2    5    6       -0.1597633007
    1    2    5    7       -0.0495095531
    1    3    5    5       -0.0153293930
    1    5    5    1        0.0399363038
    1    5    5    3       -0.0059871576
    1    5    5    8       -0.0154491512
    1    5    5   10       -0.0040975523
    1    6    5    2       -0.0423535097
    1    6    5    9        0.0113537839
    1    7    5    2       -0.0131250627
    1    7    5    9        0.0035184599
    1    8    5    5        0.0317394855
    1    9    5    5        0.0000000001
    1    9    5    6       -0.0373213306
    1    9    5    7       -0.0115656248
    1   10    5    5       -0.0152497453
    1   10    5    6       -0.0000000002
    1    1    6    6        0.3871433865
    1    2    6    4        0.0495105484
    1    2    6    5       -0.1597665123
    1    3    6    6       -0.0255293692
    1    4    6    2        0.0137303967
    1    4    6    9       -0.0000444676
    1    5    6    2       -0.0443068733
    1    5    6    9        0.0001434935
    1    6    6    1        0.0592999338
    1    6    6    3       -0.0105079949
    1    6    6    8        0.0154777897
    1    6    6   10       -0.0129373094
    1    8    6    6        0.0838205896
    1    9    6    4        0.0115598044
    1    9    6    5       -0.0373025484
    1    9    6    6        0.0000000002
    1   10    6    5       -0.0000000002
    1   10    6    6       -0.0325984289
    1    1    7    7        0.3871433865
    1    2    7    4       -0.1597665123
    1    2    7    5       -0.0495105484
    1    3    7    7       -0.0255293692
    1    4    7    2       -0.0443068733
    1    4    7    9        0.0001434935
    1    5    7    2       -0.0137303967
    1    5    7    9        0.0000444676
    1    7    7    1        0.0592999338
    1    7    7    3       -0.0105079949
    1    7    7    8        0.0154777897
    1    7    7   10       -0.0129373094
    1    8    7    7        0.0838205896
    1    9    7    4       -0.0373025484
    1    9    7    5       -0.0115598044
    1    9    7    7        0.0000000002
    1   10    7    4       -0.0000000002
    1   10    7    7       -0.0325984289
    1    1    8    1        0.0838260865
    1    1    8    3       -0.0123837317
    1    1    8    8        0.3438815966
    1    1    8    9       -0.0000000002
    1    1    8   10       -0.0043290629
    1    2    8    1       -0.0000000001
    1    2    8    2        0.0869023012
    1    2    8    3       -0.0000000001
    1    2    8    8       -0.0000000004
    1    2    8    9        0.2115194730
    1    2    8   10        0.0000000012
    1    3    8    1       -0.0050899443
    1    3    8    3       -0.0044952347
    1    3    8    8       -0.0263799636
    1    3    8    9        0.0000000002
    1    3    8   10       -0.0279650492
    1    4    8    4       -0.0154506750
    1    5    8    5       -0.0154506750
    1    6    8    6        0.0154941493
    1    7    8    7        0.0154941493
    1    8    8    1        0.0615407797
    1    8    8    2       -0.0000000001
    1    8    8    3       -0.0128456767
    1    8    8    8        0.0793386068
    1    8    8    9       -0.0000000002
    1    8    8   10       -0.0063250771
    1    9    8    2        0.0643724285
    1    9    8    9        0.0868579656
    1    9    8   10        0.0000000004
    1   10    8    1       -0.0204614702
    1   10    8    2        0.0000000004
    1   10    8    3       -0.0058053296
    1   10    8    8       -0.0247460579
    1   10    8    9        0.0000000004
    1   10    8   10        0.0283834439
    1    1    9    1        0.0000000003
    1    1    9    2        0.0786548677
    1    1    9    3        0.0000000002
    1    1    9    8       -0.0000000002
    1    1    9    9        0.3872874494
    1    1    9   10        0.0000000003
    1    2    9    1        0.0763382554
    1    2    9    2        0.0000000003
    1    2    9    3       -0.0192201635
    1    2    9    8        0.2115217069
    1    2    9    9        0.0000000001
    1    2    9   10       -0.0268256013
    1    3    9    2       -0.0064466952
    1    3    9    3       -0.0000000001
    1    3    9    8        0.0000000002
    1    3    9    9       -0.0282389418
    1    4    9    6       -0.0000423049
    1    4    9    7        0.0001365143
    1    5    9    6        0.0001365143
    1    5    9    7        0.0000423049
    1    6    9    4       -0.0035221208
    1    6    9    5        0.0113655972
    1    7    9    4        0.0113655972
    1    7    9    5        0.0035221208
    1    8    9    2        0.0645515605
    1    8    9    3        0.0000000002
    1    8    9    8       -0.0000000002
    1    8    9    9        0.1052035063
    1    8    9   10        0.0000000002
    1    9    9    1        0.0678216235
    1    9    9    2        0.0000000002
    1    9    9    3       -0.0128628911
    1    9    9    8        0.0868633611
    1    9    9    9        0.0000000004
    1    9    9   10       -0.0158782403
    1   10    9    1        0.0000000002
    1   10    9    2       -0.0221477178
    1   10    9    8        0.0000000004
    1   10    9    9       -0.0361564774
    1   10    9   10       -0.0000000001
    1    1   10    1       -0.0397444193
    1    1   10    2        0.0000000004
    1    1   10    3       -0.0452571152
    1    1   10    8       -0.0043290629
    1    1   10    9        0.0000000003
    1    1   10   10        0.3606829412
    1    2   10    1        0.0000000003
    1    2   10    2       -0.0420108658
    1    2   10    3       -0.0000000006
    1    2   10    8        0.0000000012
    1    2   10    9       -0.0268319109
    1    3   10    1       -0.0139691187
    1    3   10    2       -0.0000000002
    1    3   10    3        0.0322986911
    1    3   10    8       -0.0279654048
    1    3   10   10       -0.0224306456
    1    4   10    4       -0.0040976533
    1    5   10    5       -0.0040976533
    1    6   10    6       -0.0129438763
    1    7   10    7       -0.0129438763
    1    8   10    1       -0.0204614702
    1    8   10    2        0.0000000004
    1    8   10    3       -0.0280132474
    1    8   10    8       -0.0063251235
    1    8   10    9        0.0000000002
    1    8   10   10        0.0832606308
    1    9   10    1        0.0000000002
    1    9   10    2       -0.0224157830
    1    9   10    3       -0.0000000001
    1    9   10    8        0.0000000004
    1    9   10    9       -0.0158716452
    1    9   10   10        0.0000000002
    1   10   10    1        0.0371553083
    1   10   10    2       -0.0000000001
    1   10   10    3       -0.0031294964
    1   10   10    8        0.0283834230
    1   10   10    9       -0.0000000001
    1   10   10   10       -0.0079802436
    2    1    1    2        0.2449462859
    2    1    1    8       -0.0000000001
    2    1    1    9        0.0763382554
    2    1    1   10        0.0000000003
    2    2    1    1        0.3800469172
    2    2    1    3       -0.0019791485
    2    2    1    8        0.0859060084
    2    2    1    9        0.0000000003
    2    2    1   10       -0.0411815181
    2    3    1    2        0.0176568007
    2    3    1    9       -0.0055274066
    2    3    1   10       -0.0000000001
    2    4    1    6        0.0131135381
    2    4    1    7       -0.0423163209
    2    5    1    6       -0.0423163209
    2    5    1    7       -0.0131135381
    2    6    1    4        0.0137178856
    2    6    1    5       -0.0442665009
    2    7    1    4       -0.0442665009
    2    7    1    5       -0.0137178856
    2    8    1    2        0.0869049798
    2    8    1    8       -0.0000000001
    2    8    1    9        0.0643675953
    2    8    1   10        0.0000000004
    2    9    1    1        0.0786548677
    2    9    1    2        0.0000000003
    2    9    1    3       -0.0064213962
    2    9    1    8        0.0645445020
    2    9    1    9        0.0000000002
    2    9    1   10       -0.0221635590
    2   10    1    1        0.0000000004
    2   10    1    2       -0.0420026209
    2   10    1    3       -0.0000000002
    2   10    1    8        0.0000000004
    2   10    1    9       -0.0224253161
    2   10    1   10       -0.0000000001
    2    1    2    1        0.2450189587
    2    1    2    3        0.0176606308
    2    1    2    8        0.0869023012
    2    1    2    9        0.0000000003
    2    1    2   10       -0.0420108658
    2    2    2    2        0.3835276011
    2    2    2    9        0.0806219916
    2    2    2   10        0.0000000004
    2    3    2    1        0.0176606308
    2    3    2    3        0.0343033379
    2    3    2    8       -0.0048152509
    2    3    2   10       -0.0137599184
    2    4    2    4        0.0378031631
    2    5    2    5        0.0378031631
    2    6    2    6        0.0619529836
    2    7    2    7        0.0619529836
    2    8    2    1        0.0869023012
    2    8    2    3       -0.0048152509
    2    8    2    8        0.0634416645
    2    8    2   10       -0.0214278950
    2    9    2    1        0.0000000003
    2    9    2    2        0.0806219916
    2    9    2    9        0.0699153393
    2    9    2   10        0.0000000002
    2   10    2    1       -0.0420108658
    2   10    2    2        0.0000000004
    2   10    2    3       -0.0137599184
    2   10    2    8       -0.0214278950
    2   10    2    9        0.0000000002
    2   10    2   10        0.0379765783
    2    1    3    2        0.0176568007
    2    1    3    3       -0.0000000004
    2    1    3    8       -0.0000000001
    2    1    3    9       -0.0192201635
    2    1    3   10       -0.0000000006
    2    2    3    1       -0.0019791485
    2    2    3    3        0.3008264493
    2    2    3    8       -0.0133185144
    2    2    3    9        0.0000000002
    2    2    3   10       -0.0451420718
    2    3    3    2        0.0343033390
    2    3    3    9       -0.0071662452
    2    3    3   10       -0.0000000001
    2    4    3    6       -0.0022838175
    2    4    3    7        0.0073696931
    2    5    3    6        0.0073696931
    2    5    3    7        0.0022838175
    2    6    3    4       -0.0023365743
    2    6    3    5        0.0075399351
    2    7    3    4        0.0075399351
    2    7    3    5        0.0023365743
    2    8    3    2       -0.0048152511
    2    8    3    3       -0.0000000001
    2    8    3    9       -0.0120613167
    2    8    3   10       -0.0000000002
    2    9    3    1       -0.0064466952
    2    9    3    3        0.0271529544
    2    9    3    8       -0.0128093349
    2    9    3    9        0.0000000001
    2    9    3   10       -0.0266962290
    2   10    3    1       -0.0000000002
    2   10    3    2       -0.0137599188
    2   10    3    3        0.0000000002
    2   10    3    9       -0.0017723802
    2   10    3   10       -0.0000000003
    2    1    4    6        0.0495105484
    2    1    4    7       -0.1597665123
    2    2    4    4        0.3036811683
    2    3    4    6       -0.0003967015
    2    3    4    7        0.0012801235
    2    4    4    2        0.0378031635
    2    4    4    9       -0.0171028340
    2    6    4    1        0.0137303967
    2    6    4    3       -0.0023365745
    2    6    4    8       -0.0026210630
    2    6    4   10       -0.0019624330
    2    7    4    1       -0.0443068733
    2    7    4    3        0.0075399358
    2    7    4    8        0.0084579570
    2    7    4   10        0.0063326118
    2    8    4    6        0.0144162447
    2    8    4    7       -0.0465200490
    2    9    4    4        0.0251494698
    2    9    4    7       -0.0000000002
    2   10    4    4        0.0000000002
    2   10    4    6       -0.0060509627
    2   10    4    7        0.0195259646
    2    1    5    6       -0.1597665123
    2    1    5    7       -0.0495105484
    2    2    5    5        0.3036811683
    2    3    5    6        0.0012801235
    2    3    5    7        0.0003967015
    2    5    5    2        0.0378031635
    2    5    5    9       -0.0171028340
    2    6    5    1       -0.0443068733
    2    6    5    3        0.0075399358
    2    6    5    8        0.0084579570
    2    6    5   10        0.0063326118
    2    7    5    1       -0.0137303967
    2    7    5    3        0.0023365745
    2    7    5    8        0.0026210630
    2    7    5   10        0.0019624330
    2    8    5    6       -0.0465200490
    2    8    5    7       -0.0144162447
    2    9    5    5        0.0251494698
    2    9    5    6       -0.0000000002
    2   10    5    5        0.0000000002
    2   10    5    6        0.0195259646
    2   10    5    7        0.0060509627
    2    1    6    4        0.0495095531
    2    1    6    5       -0.1597633007
    2    2    6    6        0.3900491096
    2    3    6    4       -0.0003967017
    2    3    6    5        0.0012801241
    2    4    6    1        0.0131250627
    2    4    6    3       -0.0022838179
    2    4    6    8        0.0017049824
    2    4    6   10       -0.0027135711
    2    5    6    1       -0.0423535097
    2    5    6    3        0.0073696945
    2    5    6    8       -0.0055018397
    2    5    6   10        0.0087564733
    2    6    6    2        0.0619529891
    2    6    6    9        0.0096045354
    2    6    6   10        0.0000000001
    2    8    6    4        0.0144162448
    2    8    6    5       -0.0465200492
    2    9    6    5       -0.0000000002
    2    9    6    6        0.0770336352
    2   10    6    4       -0.0060509628
    2   10    6    5        0.0195259648
    2   10    6    6        0.0000000005
    2    1    7    4       -0.1597633007
    2    1    7    5       -0.0495095531
    2    2    7    7        0.3900491096
    2    3    7    4        0.0012801241
    2    3    7    5        0.0003967017
    2    4    7    1       -0.0423535097
    2    4    7    3        0.0073696945
    2    4    7    8       -0.0055018397
    2    4    7   10        0.0087564733
    2    5    7    1       -0.0131250627
    2    5    7    3        0.0022838179
    2    5    7    8       -0.0017049824
    2    5    7   10        0.0027135711
    2    7    7    2        0.0619529891
    2    7    7    9        0.0096045354
    2    7    7   10        0.0000000001
    2    8    7    4       -0.0465200492
    2    8    7    5       -0.0144162448
    2    9    7    4       -0.0000000002
    2    9    7    7        0.0770336352
    2   10    7    4        0.0195259648
    2   10    7    5        0.0060509628
    2   10    7    7        0.0000000005
    2    1    8    1       -0.0000000001
    2    1    8    2        0.0869049798
    2    1    8    3       -0.0000000001
    2    1    8    8       -0.0000000004
    2    1    8    9        0.2115217069
    2    1    8   10        0.0000000012
    2    2    8    1        0.0859060084
    2    2    8    3       -0.0133185144
    2    2    8    8        0.3457863458
    2    2    8    9       -0.0000000002
    2    2    8   10       -0.0055544542
    2    3    8    2       -0.0048152511
    2    3    8    9       -0.0047367868
    2    4    8    6        0.0017049826
    2    4    8    7       -0.0055018400
    2    5    8    6       -0.0055018400
    2    5    8    7       -0.0017049826
    2    6    8    4       -0.0026210628
    2    6    8    5        0.0084579565
    2    7    8    4        0.0084579565
    2    7    8    5        0.0026210628
    2    8    8    1       -0.0000000001
    2    8    8    2        0.0634416649
    2    8    8    8       -0.0000000002
    2    8    8    9        0.0914201059
    2    8    8   10        0.0000000006
    2    9    8    1        0.0645515605
    2    9    8    3       -0.0128093351
    2    9    8    8        0.0793678455
    2    9    8    9        0.0000000002
    2    9    8   10       -0.0087702942
    2   10    8    1        0.0000000004
    2   10    8    2       -0.0214278948
    2   10    8    8        0.0000000006
    2   10    8    9       -0.0313467677
    2    1    9    1        0.0761994775
    2    1    9    2        0.0000000003
    2    1    9    3       -0.0192072241
    2    1    9    8        0.2115194730
    2    1    9    9        0.0000000001
    2    1    9   10       -0.0268319109
    2    2    9    1        0.0000000003
    2    2    9    2        0.0806219916
    2    2    9    3        0.0000000002
    2    2    9    8       -0.0000000002
    2    2    9    9        0.3902007775
    2    2    9   10        0.0000000003
    2    3    9    1       -0.0055397925
    2    3    9    3       -0.0071662435
    2    3    9    8       -0.0047367868
    2    3    9    9        0.0000000002
    2    3    9   10       -0.0193192111
    2    4    9    4       -0.0171028334
    2    5    9    5       -0.0171028334
    2    6    9    6        0.0096045380
    2    7    9    7        0.0096045380
    2    8    9    1        0.0643724285
    2    8    9    3       -0.0120613169
    2    8    9    8        0.0914201064
    2    8    9   10       -0.0141525148
    2    9    9    1        0.0000000002
    2    9    9    2        0.0699153408
    2    9    9    3        0.0000000001
    2    9    9    8        0.0000000002
    2    9    9    9        0.1066274903
[...]
    9    7    9    7        0.0172243121
    9    8    9    1        0.0868579656
    9    8    9    2        0.0000000002
    9    8    9    3       -0.0172831836
    9    8    9    8        0.2103648150
    9    8    9    9       -0.0000000002
    9    8    9   10       -0.0159701243
    9    9    9    1        0.0000000004
    9    9    9    2        0.1066274903
    9    9    9    3        0.0000000003
    9    9    9    8       -0.0000000002
    9    9    9    9        0.4380229124
    9    9    9   10        0.0000000002
    9   10    9    1       -0.0158716452
    9   10    9    3       -0.0015030861
    9   10    9    8       -0.0159701243
    9   10    9    9        0.0000000002
    9   10    9   10        0.0318387679
    9    1   10    1        0.0000000002
    9    1   10    2       -0.0224253161
    9    1   10    3       -0.0000000001
    9    1   10    8        0.0000000004
    9    1   10    9       -0.0158782403
    9    1   10   10        0.0000000002
    9    2   10    1       -0.0221635590
    9    2   10    2        0.0000000002
    9    2   10    3       -0.0266962290
    9    2   10    8       -0.0087702942
    9    2   10   10        0.0769759197
    9    3   10    2       -0.0017723802
    9    3   10    3       -0.0000000001
    9    3   10    9       -0.0015030872
    9    3   10   10        0.0000000003
    9    4   10    6        0.0008331424
    9    4   10    7       -0.0026884829
    9    5   10    6       -0.0026884829
    9    5   10    7       -0.0008331424
    9    6   10    4        0.0000538980
    9    6   10    5       -0.0001739245
    9    7   10    4       -0.0001739245
    9    7   10    5       -0.0000538980
    9    8   10    1        0.0000000004
    9    8   10    2       -0.0313467677
    9    8   10    3       -0.0000000003
    9    8   10    8        0.0000000011
    9    8   10    9       -0.0159701237
    9    9   10    1       -0.0361564774
    9    9   10    2        0.0000000004
    9    9   10    3       -0.0641471317
    9    9   10    8        0.0070398060
    9    9   10    9        0.0000000002
    9    9   10   10        0.3809701049
    9   10   10    1       -0.0000000001
    9   10   10    2        0.0274896391
    9   10   10    8       -0.0000000001
    9   10   10    9        0.0318387705
    9   10   10   10        0.0000000006
   10    1    1    1       -0.0397444193
   10    1    1    2        0.0000000003
   10    1    1    3       -0.0139691187
   10    1    1    8       -0.0204614702
   10    1    1    9        0.0000000002
   10    1    1   10        0.0371553083
   10    2    1    1        0.0000000004
   10    2    1    2       -0.0420108658
   10    2    1    3       -0.0000000002
   10    2    1    8        0.0000000004
   10    2    1    9       -0.0224157830
   10    2    1   10       -0.0000000001
   10    3    1    1       -0.0452571152
   10    3    1    2       -0.0000000006
   10    3    1    3        0.0322986911
   10    3    1    8       -0.0280132474
   10    3    1    9       -0.0000000001
   10    3    1   10       -0.0031294964
   10    4    1    4       -0.0040976533
   10    5    1    5       -0.0040976533
   10    6    1    6       -0.0129438763
   10    7    1    7       -0.0129438763
   10    8    1    1       -0.0043290629
   10    8    1    2        0.0000000012
   10    8    1    3       -0.0279654048
   10    8    1    8       -0.0063251235
   10    8    1    9        0.0000000004
   10    8    1   10        0.0283834230
   10    9    1    1        0.0000000003
   10    9    1    2       -0.0268319109
   10    9    1    8        0.0000000002
   10    9    1    9       -0.0158716452
   10    9    1   10       -0.0000000001
   10   10    1    1        0.3606829412
   10   10    1    3       -0.0224306456
   10   10    1    8        0.0832606308
   10   10    1    9        0.0000000002
   10   10    1   10       -0.0079802436
   10    1    2    1        0.0000000003
   10    1    2    2       -0.0411815181
   10    1    2    3       -0.0000000001
   10    1    2    8        0.0000000004
   10    1    2    9       -0.0221477178
   10    1    2   10       -0.0000000001
   10    2    2    1       -0.0420026209
   10    2    2    2        0.0000000004
   10    2    2    3       -0.0137599188
   10    2    2    8       -0.0214278948
   10    2    2    9        0.0000000002
   10    2    2   10        0.0379765793
   10    3    2    1       -0.0000000006
   10    3    2    2       -0.0451420718
   10    3    2    3       -0.0000000001
   10    3    2    8       -0.0000000002
   10    3    2    9       -0.0266962286
   10    3    2   10       -0.0000000003
   10    4    2    6       -0.0019624338
   10    4    2    7        0.0063326143
   10    5    2    6        0.0063326143
   10    5    2    7        0.0019624338
   10    6    2    4       -0.0027135718
   10    6    2    5        0.0087564756
   10    6    2    6        0.0000000001
   10    7    2    4        0.0087564756
   10    7    2    5        0.0027135718
   10    7    2    7        0.0000000001
   10    8    2    1        0.0000000012
   10    8    2    2       -0.0055544542
   10    8    2    8        0.0000000006
   10    8    2    9       -0.0087702942
   10    9    2    1       -0.0268256013
   10    9    2    2        0.0000000003
   10    9    2    3       -0.0193192098
   10    9    2    8       -0.0141525154
   10    9    2   10        0.0274896391
   10   10    2    2        0.3629766895
   10   10    2    3       -0.0000000004
   10   10    2    9        0.0769759197
   10   10    2   10        0.0000000008
   10    1    3    1       -0.0139793424
   10    1    3    2       -0.0000000001
   10    1    3    3        0.0029934114
   10    1    3    8       -0.0058053296
   10    1    3   10       -0.0031294964
   10    2    3    1       -0.0000000002
   10    2    3    2       -0.0137599184
   10    2    3    3        0.0000000002
   10    2    3    9       -0.0017723811
   10    2    3   10       -0.0000000003
   10    3    3    1        0.0323006815
   10    3    3    2       -0.0000000001
   10    3    3    3       -0.0363847267
   10    3    3    8        0.0040332873
   10    3    3    9       -0.0000000001
   10    3    3   10        0.0488382013
   10    4    3    4       -0.0008638898
   10    5    3    5       -0.0008638898
   10    6    3    6       -0.0067179184
   10    7    3    7       -0.0067179184
   10    8    3    1       -0.0279650492
   10    8    3    3        0.0220269509
   10    8    3    8       -0.0043169306
   10    8    3   10       -0.0255108928
   10    9    3    2       -0.0193192111
   10    9    3    9       -0.0015030861
   10   10    3    1       -0.0224306456
   10   10    3    2       -0.0000000004
   10   10    3    3        0.3197340642
   10   10    3    8       -0.0206899313
   10   10    3    9        0.0000000003
   10   10    3   10       -0.0651558168
   10    1    4    4       -0.0152497453
   10    1    4    7       -0.0000000002
   10    2    4    4        0.0000000002
   10    2    4    6       -0.0060509628
   10    2    4    7        0.0195259648
   10    3    4    4       -0.0326165930
   10    3    4    6       -0.0000000001
   10    3    4    7        0.0000000004
   10    4    4    1       -0.0040975523
   10    4    4    3       -0.0008638898
   10    4    4    8        0.0015704163
   10    4    4   10        0.0065090751
   10    6    4    2       -0.0027135711
   10    6    4    9        0.0008331423
   10    7    4    2        0.0087564733
   10    7    4    9       -0.0026884824
   10    8    4    4        0.0131330285
   10    8    4    6        0.0000000002
   10    8    4    7       -0.0000000008
   10    9    4    4        0.0000000001
   10    9    4    6       -0.0014191888
   10    9    4    7        0.0045796068
   10   10    4    4        0.2935610922
   10   10    4    7       -0.0000000002
   10    1    5    5       -0.0152497453
   10    1    5    6       -0.0000000002
   10    2    5    5        0.0000000002
   10    2    5    6        0.0195259648
   10    2    5    7        0.0060509628
   10    3    5    5       -0.0326165930
   10    3    5    6        0.0000000004
   10    3    5    7        0.0000000001
   10    5    5    1       -0.0040975523
   10    5    5    3       -0.0008638898
   10    5    5    8        0.0015704163
   10    5    5   10        0.0065090751
   10    6    5    2        0.0087564733
   10    6    5    9       -0.0026884824
   10    7    5    2        0.0027135711
   10    7    5    9       -0.0008331423
   10    8    5    5        0.0131330285
   10    8    5    6       -0.0000000008
   10    8    5    7       -0.0000000002
   10    9    5    5        0.0000000001
   10    9    5    6        0.0045796068
   10    9    5    7        0.0014191888
   10   10    5    5        0.2935610922
   10   10    5    6       -0.0000000002
   10    1    6    5       -0.0000000002
   10    1    6    6       -0.0325984289
   10    2    6    4       -0.0060509627
   10    2    6    5        0.0195259646
   10    2    6    6        0.0000000005
   10    3    6    4       -0.0000000001
   10    3    6    5        0.0000000004
   10    3    6    6       -0.0628470706
   10    4    6    2       -0.0019624330
   10    4    6    9        0.0000538976
   10    5    6    2        0.0063326118
   10    5    6    9       -0.0001739233
   10    6    6    1       -0.0129373094
   10    6    6    2        0.0000000001
   10    6    6    3       -0.0067179174
   10    6    6    8       -0.0009474116
   10    6    6   10        0.0157558479
   10    8    6    4        0.0000000002
   10    8    6    5       -0.0000000008
   10    8    6    6        0.0145652176
   10    9    6    4       -0.0014191890
   10    9    6    5        0.0045796076
   10    9    6    6        0.0000000003
   10   10    6    5       -0.0000000002
   10   10    6    6        0.3744037753
   10    1    7    4       -0.0000000002
   10    1    7    7       -0.0325984289
   10    2    7    4        0.0195259646
   10    2    7    5        0.0060509627
   10    2    7    7        0.0000000005
   10    3    7    4        0.0000000004
   10    3    7    5        0.0000000001
   10    3    7    7       -0.0628470706
   10    4    7    2        0.0063326118
   10    4    7    9       -0.0001739233
   10    5    7    2        0.0019624330
   10    5    7    9       -0.0000538976
   10    7    7    1       -0.0129373094
   10    7    7    2        0.0000000001
   10    7    7    3       -0.0067179174
   10    7    7    8       -0.0009474116
   10    7    7   10        0.0157558479
   10    8    7    4       -0.0000000008
   10    8    7    5       -0.0000000002
   10    8    7    7        0.0145652176
   10    9    7    4        0.0045796076
   10    9    7    5        0.0014191890
   10    9    7    7        0.0000000003
   10   10    7    4       -0.0000000002
   10   10    7    7        0.3744037753
   10    1    8    1       -0.0204215968
   10    1    8    2        0.0000000004
   10    1    8    3       -0.0058065056
   10    1    8    8       -0.0247460579
   10    1    8    9        0.0000000004
   10    1    8   10        0.0283834230
   10    2    8    1        0.0000000004
   10    2    8    2       -0.0214278950
   10    2    8    8        0.0000000006
   10    2    8    9       -0.0313467672
   10    3    8    1       -0.0280140680
   10    3    8    2       -0.0000000002
   10    3    8    3        0.0040332875
   10    3    8    8       -0.0548213561
   10    3    8    9       -0.0000000003
   10    3    8   10       -0.0255108928
   10    4    8    4        0.0015704164
   10    5    8    5        0.0015704164
   10    6    8    6       -0.0009474113
   10    7    8    7       -0.0009474113
   10    8    8    1       -0.0063250771
   10    8    8    2        0.0000000006
   10    8    8    3       -0.0043169306
   10    8    8    8        0.0117198025
   10    8    8    9        0.0000000011
   10    8    8   10        0.0383079033
   10    9    8    1        0.0000000002
   10    9    8    2       -0.0141525148
   10    9    8    8        0.0000000004
   10    9    8    9       -0.0159701243
   10    9    8   10       -0.0000000001
   10   10    8    1        0.0832606308
   10   10    8    3       -0.0206899313
   10   10    8    8        0.3441409716
   10   10    8   10        0.0245343419
   10    1    9    1        0.0000000002
   10    1    9    2       -0.0221635590
   10    1    9    8        0.0000000004
   10    1    9    9       -0.0361564774
   10    1    9   10       -0.0000000001
   10    2    9    1       -0.0224253161
   10    2    9    2        0.0000000002
   10    2    9    3       -0.0017723802
   10    2    9    8       -0.0313467677
   10    2    9    9        0.0000000004
   10    2    9   10        0.0274896391
   10    3    9    1       -0.0000000001
   10    3    9    2       -0.0266962290
   10    3    9    3       -0.0000000001
   10    3    9    8       -0.0000000003
   10    3    9    9       -0.0641471317
   10    4    9    6        0.0000538980
   10    4    9    7       -0.0001739245
   10    5    9    6       -0.0001739245
   10    5    9    7       -0.0000538980
   10    6    9    4        0.0008331424
   10    6    9    5       -0.0026884829
   10    7    9    4       -0.0026884829
   10    7    9    5       -0.0008331424
   10    8    9    1        0.0000000004
   10    8    9    2       -0.0087702942
   10    8    9    8        0.0000000011
   10    8    9    9        0.0070398060
   10    8    9   10       -0.0000000001
   10    9    9    1       -0.0158782403
   10    9    9    3       -0.0015030872
   10    9    9    8       -0.0159701237
   10    9    9    9        0.0000000002
   10    9    9   10        0.0318387705
   10   10    9    1        0.0000000002
   10   10    9    2        0.0769759197
   10   10    9    3        0.0000000003
   10   10    9    9        0.3809701049
   10   10    9   10        0.0000000006
   10    1   10    1        0.0372216355
   10    1   10    2       -0.0000000001
   10    1   10    3       -0.0031279813
   10    1   10    8        0.0283834439
   10    1   10    9       -0.0000000001
   10    1   10   10       -0.0079802436
   10    2   10    1       -0.0000000001
   10    2   10    2        0.0379765783
   10    2   10    3       -0.0000000003
   10    2   10    9        0.0274896403
   10    2   10   10        0.0000000008
   10    3   10    1       -0.0031279813
   10    3   10    2       -0.0000000003
   10    3   10    3        0.0488382012
   10    3   10    8       -0.0255108928
   10    3   10   10       -0.0651558168
   10    4   10    4        0.0065090750
   10    5   10    5        0.0065090750
   10    6   10    6        0.0157558461
   10    7   10    7        0.0157558461
   10    8   10    1        0.0283834439
   10    8   10    3       -0.0255108928
   10    8   10    8        0.0383079033
   10    8   10    9       -0.0000000001
   10    8   10   10        0.0245343419
   10    9   10    1       -0.0000000001
   10    9   10    2        0.0274896403
   10    9   10    8       -0.0000000001
   10    9   10    9        0.0318387679
   10    9   10   10        0.0000000006
   10   10   10    1       -0.0079802436
   10   10   10    2        0.0000000008
   10   10   10    3       -0.0651558168
   10   10   10    8        0.0245343419
   10   10   10    9        0.0000000006
   10   10   10   10        0.3933547020
 end_two_electron_integrals

 Parallel integral file used       8 records with       0 large values


 Task  times  cpu:      138.0s     wall:      141.2s


                                NWChem Input Module
                                -------------------


 Summary of allocated global arrays
-----------------------------------
  No active global arrays


MA_summarize_allocated_blocks: starting scan ...
MA_summarize_allocated_blocks: scan completed: 0 heap blocks, 0 stack blocks
MA usage statistics:

	allocation statistics:
					      heap	     stack
					      ----	     -----
	current number of blocks	         0	         0
	maximum number of blocks	        18	        42
	current total bytes		         0	         0
	maximum total bytes		  51983048	9994007128
	maximum total K-bytes		     51984	   9994008
	maximum total M-bytes		        52	      9995


                                     CITATION
                                     --------
                Please cite the following reference when publishing
                           results obtained with NWChem:

          E. Apra, E. J. Bylaska, W. A. de Jong, N. Govind, K. Kowalski,
       T. P. Straatsma, M. Valiev, H. J. J. van Dam, Y. Alexeev, J. Anchell,
       V. Anisimov, F. W. Aquino, R. Atta-Fynn, J. Autschbach, N. P. Bauman,
     J. C. Becca, D. E. Bernholdt, K. Bhaskaran-Nair, S. Bogatko, P. Borowski,
         J. Boschen, J. Brabec, A. Bruner, E. Cauet, Y. Chen, G. N. Chuev,
      C. J. Cramer, J. Daily, M. J. O. Deegan, T. H. Dunning Jr., M. Dupuis,
   K. G. Dyall, G. I. Fann, S. A. Fischer, A. Fonari, H. Fruchtl, L. Gagliardi,
      J. Garza, N. Gawande, S. Ghosh, K. Glaesemann, A. W. Gotz, J. Hammond,
       V. Helms, E. D. Hermes, K. Hirao, S. Hirata, M. Jacquelin, L. Jensen,
   B. G. Johnson, H. Jonsson, R. A. Kendall, M. Klemm, R. Kobayashi, V. Konkov,
      S. Krishnamoorthy, M. Krishnan, Z. Lin, R. D. Lins, R. J. Littlefield,
      A. J. Logsdail, K. Lopata, W. Ma, A. V. Marenich, J. Martin del Campo,
   D. Mejia-Rodriguez, J. E. Moore, J. M. Mullin, T. Nakajima, D. R. Nascimento,
    J. A. Nichols, P. J. Nichols, J. Nieplocha, A. Otero-de-la-Roza, B. Palmer,
    A. Panyala, T. Pirojsirikul, B. Peng, R. Peverati, J. Pittner, L. Pollack,
   R. M. Richard, P. Sadayappan, G. C. Schatz, W. A. Shelton, D. W. Silverstein,
   D. M. A. Smith, T. A. Soares, D. Song, M. Swart, H. L. Taylor, G. S. Thomas,
            V. Tipparaju, D. G. Truhlar, K. Tsemekhman, T. Van Voorhis,
      A. Vazquez-Mayagoitia, P. Verma, O. Villa, A. Vishnu, K. D. Vogiatzis,
        D. Wang, J. H. Weare, M. J. Williamson, T. L. Windus, K. Wolinski,
        A. T. Wong, Q. Wu, C. Yang, Q. Yu, M. Zacharias, Z. Zhang, Y. Zhao,
                                and R. J. Harrison
                        "NWChem: Past, present, and future
                         J. Chem. Phys. 152, 184102 (2020)
                               doi:10.1063/5.0004997

                                      AUTHORS
                                      -------
  E. Apra, E. J. Bylaska, N. Govind, K. Kowalski, M. Valiev, D. Mejia-Rodriguez,
       A. Kunitsa, N. P. Bauman, A. Panyala, W. A. de Jong, T. P. Straatsma,
        H. J. J. van Dam, D. Wang, T. L. Windus, J. Hammond, J. Autschbach,
    K. Bhaskaran-Nair, J. Brabec, K. Lopata, S. A. Fischer, S. Krishnamoorthy,
     M. Jacquelin, W. Ma, M. Klemm, O. Villa, Y. Chen, V. Anisimov, F. Aquino,
    S. Hirata, M. T. Hackler, Eric Hermes, L. Jensen, J. E. Moore, J. C. Becca,
      V. Konjkov, T. Risthaus, M. Malagoli, A. Marenich, A. Otero-de-la-Roza,
        J. Mullin, P. Nichols, R. Peverati, J. Pittner, Y. Zhao, P.-D. Fan,
        A. Fonari, M. J. Williamson, R. J. Harrison, J. R. Rehr, M. Dupuis,
     D. Silverstein, D. M. A. Smith, J. Nieplocha, V. Tipparaju, M. Krishnan,
     B. E. Van Kuiken, A. Vazquez-Mayagoitia, M. Swart, Q. Wu, T. Van Voorhis,
     A. A. Auer, M. Nooijen, L. D. Crosby, E. Brown, G. Cisneros, G. I. Fann,
   H. Fruchtl, J. Garza, K. Hirao, R. A. Kendall, J. A. Nichols, K. Tsemekhman,
    K. Wolinski, J. Anchell, D. E. Bernholdt, P. Borowski, T. Clark, D. Clerc,
   H. Dachsel, M. J. O. Deegan, K. Dyall, D. Elwood, E. Glendening, M. Gutowski,
   A. C. Hess, J. Jaffe, B. G. Johnson, J. Ju, R. Kobayashi, R. Kutteh, Z. Lin,
   R. Littlefield, X. Long, B. Meng, T. Nakajima, S. Niu, L. Pollack, M. Rosing,
   K. Glaesemann, G. Sandrone, M. Stave, H. Taylor, G. Thomas, J. H. van Lenthe,
                               A. T. Wong, Z. Zhang.

 Total times  cpu:      139.1s     wall:      142.5s
