 argument  1 = input.nw
  NWChem w/ OpenMP: maximum threads =    1



============================== echo of input deck ==============================

echo
start H6
title "H6"

memory total 12 gb

geometry units bohr
symmetry c1
H 0 0 0
H 0 0 2.65
H 0 0 5.30
H 0 0 7.95
H 0 0 10.60
H 0 0 13.25
end

basis spherical
  * library cc-pVTZ
end

scf
thresh 1e-8
end

tce
  2eorb
  2emet 13
  ccsd
  thresh 1e-8
  maxiter 300
end

set tce:print_integrals T
set tce:qorb 6
set tce:qela 3
set tce:qelb 3

# set tce:qducc T
# set tce:nactv 3
# set tce:nonhf T
# set tce:ducc_model 6

set tce:printtol 0.02

task tce
================================================================================


                                         
                                         


             Northwest Computational Chemistry Package (NWChem) 7.0.1
             --------------------------------------------------------


                    Environmental Molecular Sciences Laboratory
                       Pacific Northwest National Laboratory
                                Richland, WA 99352

                              Copyright (c) 1994-2020
                       Pacific Northwest National Laboratory
                            Battelle Memorial Institute

             NWChem is an open-source computational chemistry package
                        distributed under the terms of the
                      Educational Community License (ECL) 2.0
             A copy of the license is included with this distribution
                              in the LICENSE.TXT file

                                  ACKNOWLEDGMENT
                                  --------------

            This software and its documentation were developed at the
            EMSL at Pacific Northwest National Laboratory, a multiprogram
            national laboratory, operated for the U.S. Department of Energy
            by Battelle under Contract Number DE-AC05-76RL01830. Support
            for this work was provided by the Department of Energy Office
            of Biological and Environmental Research, Office of Basic
            Energy Sciences, and the Office of Advanced Scientific Computing.


           Job information
           ---------------

    hostname        = WE46210
    program         = /home/baum612/code/nwchem/bin/LINUX64/nwchem
    date            = Fri Nov  8 23:16:32 2024

    compiled        = Wed_Sep_04_02:00:17_2024
    source          = /home/baum612/code/nwchem
    nwchem branch   = 7.0.0
    nwchem revision = nwchem_on_git-4191-g39d87d64de
    ga revision     = 5.8.1
    use scalapack   = F
    input           = input.nw
    prefix          = H6.
    data base       = ./H6.db
    status          = startup
    nproc           =        1
    time left       =     -1s



           Memory information
           ------------------

    heap     =  402653182 doubles =   3072.0 Mbytes
    stack    =  402653179 doubles =   3072.0 Mbytes
    global   =  805306368 doubles =   6144.0 Mbytes (distinct from heap & stack)
    total    = 1610612729 doubles =  12288.0 Mbytes
    verify   = yes
    hardfail = no 


           Directory information
           ---------------------

  0 permanent = .
  0 scratch   = .




                                NWChem Input Module
                                -------------------


                                        H6
                                        --
 Turning off AUTOSYM since
 SYMMETRY directive was detected!


          ------
          auto-z
          ------
     1 autoz failed with cvr_scaling = 1.2 changing to 1.3
     2 autoz failed with cvr_scaling = 1.3 changing to 1.4
     3 autoz failed with cvr_scaling = 1.4 changing to 1.5
     4 autoz failed with cvr_scaling = 1.5 changing to 1.6
     5 autoz failed with cvr_scaling = 1.6 changing to 1.7

 AUTOZ failed to generate good internal coordinates.
 Cartesian coordinates will be used in optimizations.



                             Geometry "geometry" -> ""
                             -------------------------

 Output coordinates in a.u. (scale by  1.000000000 to convert to a.u.)

  No.       Tag          Charge          X              Y              Z
 ---- ---------------- ---------- -------------- -------------- --------------
    1 H                    1.0000     0.00000000     0.00000000    -6.62500000
    2 H                    1.0000     0.00000000     0.00000000    -3.97500000
    3 H                    1.0000     0.00000000     0.00000000    -1.32500000
    4 H                    1.0000     0.00000000     0.00000000     1.32500000
    5 H                    1.0000     0.00000000     0.00000000     3.97500000
    6 H                    1.0000     0.00000000     0.00000000     6.62500000

      Atomic Mass 
      ----------- 

      H                  1.007825


 Effective nuclear repulsion energy (a.u.)       3.2830188679

            Nuclear Dipole moment (a.u.) 
            ----------------------------
        X                 Y               Z
 ---------------- ---------------- ----------------
     0.0000000000     0.0000000000     0.0000000000


            XYZ format geometry
            -------------------
     6
 geometry
 H                     0.00000000     0.00000000    -3.50579927
 H                     0.00000000     0.00000000    -2.10347956
 H                     0.00000000     0.00000000    -0.70115985
 H                     0.00000000     0.00000000     0.70115985
 H                     0.00000000     0.00000000     2.10347956
 H                     0.00000000     0.00000000     3.50579927



 Summary of "ao basis" -> "" (spherical)
 ------------------------------------------------------------------------------
       Tag                 Description            Shells   Functions and Types
 ---------------- ------------------------------  ------  ---------------------
 *                          cc-pVTZ                   on all atoms 


                      Basis "ao basis" -> "ao basis" (spherical)
                      -----
  H (Hydrogen)
  ------------
            Exponent  Coefficients 
       -------------- ---------------------------------------------------------
  1 S  3.38700000E+01  0.006068
  1 S  5.09500000E+00  0.045308
  1 S  1.15900000E+00  0.202822

  2 S  3.25800000E-01  1.000000

  3 S  1.02700000E-01  1.000000

  4 P  1.40700000E+00  1.000000

  5 P  3.88000000E-01  1.000000

  6 D  1.05700000E+00  1.000000



 Summary of "ao basis" -> "ao basis" (spherical)
 ------------------------------------------------------------------------------
       Tag                 Description            Shells   Functions and Types
 ---------------- ------------------------------  ------  ---------------------
 H                          cc-pVTZ                  6       14   3s2p1d


                                 NWChem SCF Module
                                 -----------------


                                        H6



  ao basis        = "ao basis"
  functions       =    84
  atoms           =     6
  closed shells   =     3
  open shells     =     0
  charge          =   0.00
  wavefunction    = RHF 
  input vectors   = atomic
  output vectors  = ./H6.movecs
  use symmetry    = F
  symmetry adapt  = F


 Summary of "ao basis" -> "ao basis" (spherical)
 ------------------------------------------------------------------------------
       Tag                 Description            Shells   Functions and Types
 ---------------- ------------------------------  ------  ---------------------
 H                          cc-pVTZ                  6       14   3s2p1d



 Forming initial guess at       0.0s


      Superposition of Atomic Density Guess
      -------------------------------------

 Sum of atomic energies:          -2.99885518

      Non-variational initial energy
      ------------------------------

 Total energy =      -2.344314
 1-e energy   =      -9.496464
 2-e energy   =       3.869131
 HOMO         =      -0.270986
 LUMO         =      -0.114742


 Starting SCF solution at       0.1s



 ----------------------------------------------
         Quadratically convergent ROHF

 Convergence threshold     :          1.000E-08
 Maximum no. of iterations :           30
 Final Fock-matrix accuracy:          1.000E-10
 ----------------------------------------------


 Integral file          = ./H6.aoints.0
 Record size in doubles =  65536        No. of integs per rec  =  43688
 Max. records in memory =    202        Max. records in file   = 229029
 No. of bits per label  =      8        No. of bits per value  =     64


 #quartets = 1.533D+05 #integrals = 7.738D+05 #direct =  0.0% #cached =100.0%


              iter       energy          gnorm     gmax       time
             ----- ------------------- --------- --------- --------
                 1       -3.0538358619  1.80D-01  1.04D-01      0.3
                 2       -3.0638417413  6.37D-02  2.41D-02      0.3
                 3       -3.0644078275  3.47D-03  2.09D-03      0.4
                 4       -3.0644117367  3.72D-06  2.85D-06      0.5
                 5       -3.0644117367  1.56D-10  6.74D-11      0.5


       Final RHF  results 
       ------------------ 

         Total SCF energy =     -3.064411736676
      One-electron energy =     -9.867354102101
      Two-electron energy =      3.519923497500
 Nuclear repulsion energy =      3.283018867925

        Time for solution =      0.4s


             Final eigenvalues
             -----------------

              1      
    1   -0.5527
    2   -0.4832
    3   -0.3779
    4   -0.0464
    5    0.0961
    6    0.2407
    7    0.3477
    8    0.3886
    9    0.4135
   10    0.4755
   11    0.5600
   12    0.5820
   13    0.5820

                       ROHF Final Molecular Orbital Analysis
                       -------------------------------------

 Vector    1  Occ=2.000000D+00  E=-5.526561D-01
              MO Center= -2.7D-17,  2.1D-18, -2.6D-12, r^2= 3.9D+00
   Bfn.  Coefficient  Atom+Function         Bfn.  Coefficient  Atom+Function  
  ----- ------------  ---------------      ----- ------------  ---------------
    30      0.205276  3 H  s                 44      0.205276  4 H  s          
    16      0.154986  2 H  s                 58      0.154986  5 H  s          

 Vector    2  Occ=2.000000D+00  E=-4.832287D-01
              MO Center= -1.6D-19, -2.2D-17,  2.5D-12, r^2= 8.1D+00
   Bfn.  Coefficient  Atom+Function         Bfn.  Coefficient  Atom+Function  
  ----- ------------  ---------------      ----- ------------  ---------------
    16      0.201025  2 H  s                 58     -0.201025  5 H  s          
    17      0.190377  2 H  s                 59     -0.190377  5 H  s          
     2      0.176653  1 H  s                 72     -0.176653  6 H  s          

 Vector    3  Occ=2.000000D+00  E=-3.778687D-01
              MO Center=  5.4D-16, -2.6D-16, -1.0D-12, r^2= 7.4D+00
   Bfn.  Coefficient  Atom+Function         Bfn.  Coefficient  Atom+Function  
  ----- ------------  ---------------      ----- ------------  ---------------
    31      0.216397  3 H  s                 45      0.216397  4 H  s          
     3     -0.187539  1 H  s                 73     -0.187539  6 H  s          
     2     -0.184567  1 H  s                 30      0.184261  3 H  s          
    44      0.184261  4 H  s                 72     -0.184567  6 H  s          
    17     -0.163182  2 H  s                 59     -0.163182  5 H  s          

 Vector    4  Occ=0.000000D+00  E=-4.644366D-02
              MO Center= -2.1D-17,  2.7D-18, -6.3D-12, r^2= 8.5D+00
   Bfn.  Coefficient  Atom+Function         Bfn.  Coefficient  Atom+Function  
  ----- ------------  ---------------      ----- ------------  ---------------
     3      0.455330  1 H  s                 73     -0.455330  6 H  s          
    31     -0.298664  3 H  s                 45      0.298664  4 H  s          
    17     -0.258041  2 H  s                 59      0.258041  5 H  s          
    30     -0.176531  3 H  s                 44      0.176531  4 H  s          
     2      0.154723  1 H  s                 72     -0.154723  6 H  s          

 Vector    5  Occ=0.000000D+00  E= 9.611925D-02
              MO Center=  4.6D-16, -1.4D-17,  5.9D-11, r^2= 1.1D+01
   Bfn.  Coefficient  Atom+Function         Bfn.  Coefficient  Atom+Function  
  ----- ------------  ---------------      ----- ------------  ---------------
    17      0.869175  2 H  s                 59      0.869175  5 H  s          
     3     -0.787174  1 H  s                 73     -0.787174  6 H  s          
    31     -0.352166  3 H  s                 45     -0.352166  4 H  s          
    16      0.196757  2 H  s                 58      0.196757  5 H  s          

 Vector    6  Occ=0.000000D+00  E= 2.406562D-01
              MO Center= -1.5D-17,  1.2D-17, -4.0D-12, r^2= 1.1D+01
   Bfn.  Coefficient  Atom+Function         Bfn.  Coefficient  Atom+Function  
  ----- ------------  ---------------      ----- ------------  ---------------
    31      1.958538  3 H  s                 45     -1.958538  4 H  s          
    17     -1.579674  2 H  s                 59      1.579674  5 H  s          
     3      1.127701  1 H  s                 73     -1.127701  6 H  s          
     2     -0.222427  1 H  s                 72      0.222427  6 H  s          
    30      0.154374  3 H  s                 44     -0.154374  4 H  s          

 Vector    7  Occ=0.000000D+00  E= 3.477043D-01
              MO Center=  2.3D-16,  5.2D-16,  6.5D-12, r^2= 7.3D+00
   Bfn.  Coefficient  Atom+Function         Bfn.  Coefficient  Atom+Function  
  ----- ------------  ---------------      ----- ------------  ---------------
    30      0.644768  3 H  s                 44      0.644768  4 H  s          
    31     -0.552436  3 H  s                 45     -0.552436  4 H  s          
     2      0.486668  1 H  s                 72      0.486668  6 H  s          
    16      0.479464  2 H  s                 58      0.479464  5 H  s          
     3     -0.428492  1 H  s                 73     -0.428492  6 H  s          

 Vector    8  Occ=0.000000D+00  E= 3.885897D-01
              MO Center= -4.1D-17, -2.8D-16, -5.0D-11, r^2= 1.1D+01
   Bfn.  Coefficient  Atom+Function         Bfn.  Coefficient  Atom+Function  
  ----- ------------  ---------------      ----- ------------  ---------------
    17     -0.746522  2 H  s                 59      0.746522  5 H  s          
     2      0.732025  1 H  s                 72     -0.732025  6 H  s          
     3     -0.544914  1 H  s                 73      0.544914  6 H  s          
    16      0.433325  2 H  s                 58     -0.433325  5 H  s          
    30      0.405939  3 H  s                 44     -0.405939  4 H  s          

 Vector    9  Occ=0.000000D+00  E= 4.134648D-01
              MO Center=  3.8D-16, -2.5D-17, -3.0D-11, r^2= 1.3D+01
   Bfn.  Coefficient  Atom+Function         Bfn.  Coefficient  Atom+Function  
  ----- ------------  ---------------      ----- ------------  ---------------
     3      1.128238  1 H  s                 73      1.128238  6 H  s          
     2     -0.811508  1 H  s                 72     -0.811508  6 H  s          
    31     -0.466225  3 H  s                 45     -0.466225  4 H  s          
    30      0.456182  3 H  s                 44      0.456182  4 H  s          
    17     -0.401666  2 H  s                 59     -0.401666  5 H  s          

 Vector   10  Occ=0.000000D+00  E= 4.755062D-01
              MO Center=  9.9D-17, -3.9D-16,  7.9D-11, r^2= 1.1D+01
   Bfn.  Coefficient  Atom+Function         Bfn.  Coefficient  Atom+Function  
  ----- ------------  ---------------      ----- ------------  ---------------
    17      1.581827  2 H  s                 59     -1.581827  5 H  s          
     3     -1.182699  1 H  s                 73      1.182699  6 H  s          
    16     -0.861924  2 H  s                 58      0.861924  5 H  s          
     2      0.580896  1 H  s                 72     -0.580896  6 H  s          

 Vector   11  Occ=0.000000D+00  E= 5.600307D-01
              MO Center= -2.9D-16, -1.8D-16,  1.0D-10, r^2= 7.8D+00
   Bfn.  Coefficient  Atom+Function         Bfn.  Coefficient  Atom+Function  
  ----- ------------  ---------------      ----- ------------  ---------------
    17      2.304078  2 H  s                 59      2.304078  5 H  s          
    31     -1.343456  3 H  s                 45     -1.343456  4 H  s          
    16     -0.922425  2 H  s                 58     -0.922425  5 H  s          
     3     -0.899419  1 H  s                 73     -0.899419  6 H  s          
    30      0.576774  3 H  s                 44      0.576774  4 H  s          

 Vector   12  Occ=0.000000D+00  E= 5.820379D-01
              MO Center=  5.0D-16, -5.3D-16, -5.7D-12, r^2= 3.8D+00
   Bfn.  Coefficient  Atom+Function         Bfn.  Coefficient  Atom+Function  
  ----- ------------  ---------------      ----- ------------  ---------------
    35      0.321097  3 H  px                36     -0.322024  3 H  py         
    49      0.321097  4 H  px                50     -0.322024  4 H  py         
    21      0.253246  2 H  px                22     -0.253977  2 H  py         
    63      0.253246  5 H  px                64     -0.253977  5 H  py         

 Vector   13  Occ=0.000000D+00  E= 5.820379D-01
              MO Center= -2.8D-16, -3.1D-16, -5.7D-12, r^2= 3.8D+00
   Bfn.  Coefficient  Atom+Function         Bfn.  Coefficient  Atom+Function  
  ----- ------------  ---------------      ----- ------------  ---------------
    35      0.322024  3 H  px                36      0.321097  3 H  py         
    49      0.322024  4 H  px                50      0.321097  4 H  py         
    21      0.253977  2 H  px                22      0.253246  2 H  py         
    63      0.253977  5 H  px                64      0.253246  5 H  py         


 center of mass
 --------------
 x =   0.00000000 y =   0.00000000 z =   0.00000000

 moments of inertia (a.u.)
 ------------------
         123.855393593750           0.000000000000           0.000000000000
           0.000000000000         123.855393593750           0.000000000000
           0.000000000000           0.000000000000           0.000000000000

  Mulliken analysis of the total density
  --------------------------------------

    Atom       Charge   Shell Charges
 -----------   ------   -------------------------------------------------------
    1 H    1     0.97   0.14  0.43  0.38  0.00  0.01  0.00
    2 H    1     1.05   0.15  0.46  0.41  0.00  0.02  0.00
    3 H    1     0.99   0.15  0.46  0.36  0.00  0.02  0.00
    4 H    1     0.99   0.15  0.46  0.36  0.00  0.02  0.00
    5 H    1     1.05   0.15  0.46  0.41  0.00  0.02  0.00
    6 H    1     0.97   0.14  0.43  0.38  0.00  0.01  0.00

       Multipole analysis of the density wrt the origin
       ------------------------------------------------

     L   x y z        total         open         nuclear
     -   - - -        -----         ----         -------
     0   0 0 0     -0.000000      0.000000      6.000000

     1   1 0 0     -0.000000      0.000000      0.000000
     1   0 1 0      0.000000      0.000000      0.000000
     1   0 0 1      0.000000      0.000000      0.000000

     2   2 0 0     -6.425719      0.000000      0.000000
     2   1 1 0      0.000000      0.000000      0.000000
     2   1 0 1      0.000000      0.000000      0.000000
     2   0 2 0     -6.425719      0.000000      0.000000
     2   0 1 1     -0.000000      0.000000      0.000000
     2   0 0 2     -2.333443      0.000000    122.893750


 Parallel integral file used      18 records with       0 large values

 ------------------------------------
     Number of active orbitals      6
     Number of active alpha electrons      3
     Number of active beta electrons       3
 ------------------------------------
                   NWChem Extensible Many-Electron Theory Module
                   ---------------------------------------------

              ======================================================
                   This portion of the program was automatically
                  generated by a Tensor Contraction Engine (TCE).
                  The development of this portion of the program
                 and TCE was supported by US Department of Energy,
                Office of Science, Office of Basic Energy Science.
                      TCE is a product of Battelle and PNNL.
              Please cite: S.Hirata, J.Phys.Chem.A 107, 9887 (2003).
              ======================================================

                                        H6


            General Information
            -------------------
      Number of processors :     1
         Wavefunction type : Restricted Hartree-Fock
          No. of electrons :     6
           Alpha electrons :     3
            Beta electrons :     3
           No. of orbitals :   168
            Alpha orbitals :    84
             Beta orbitals :    84
        Alpha frozen cores :     0
         Beta frozen cores :     0
     Alpha frozen virtuals :    78
      Beta frozen virtuals :    78
         Spin multiplicity : singlet 
    Number of AO functions :    84
       Number of AO shells :    36
        Use of symmetry is : off
      Symmetry adaption is : off
         Schwarz screening : 0.10D-09

          Correlation Information
          -----------------------
          Calculation type : Coupled-cluster singles & doubles                           
   Perturbative correction : none                                                        
            Max iterations :      300
        Residual threshold : 0.10D-07
     T(0) DIIS level shift : 0.00D+00
     L(0) DIIS level shift : 0.00D+00
     T(1) DIIS level shift : 0.00D+00
     L(1) DIIS level shift : 0.00D+00
     T(R) DIIS level shift : 0.00D+00
     T(I) DIIS level shift : 0.00D+00
   CC-T/L Amplitude update :  5-th order DIIS
                I/O scheme : Global Array Library
        L-threshold :  0.10D-07
        EOM-threshold :  0.10D-07
 no EOMCCSD initial starts read in
 TCE RESTART OPTIONS
 READ_INT:   F
 WRITE_INT:  F
 READ_TA:    F
 WRITE_TA:   F
 READ_XA:    F
 WRITE_XA:   F
 READ_IN3:   F
 WRITE_IN3:  F
 SLICE:      F
 D4D5:       F
 quantumc:   T
 qrotation:  F
 pwtce:      F
 qducc:      F
 nacto:                         0
 nrotv:                         0
 nrot:                          0

            Memory Information
            ------------------
          Available GA space size is     805299312 doubles
          Available MA space size is     805303700 doubles

 Maximum block size supplied by input
 Maximum block size         1 doubles

 tile_dim =      1

 Block   Spin    Irrep     Size     Offset   Alpha
 -------------------------------------------------
   1    alpha     a      1 doubles       0       1
   2    alpha     a      1 doubles       1       2
   3    alpha     a      1 doubles       2       3
   4    beta      a      1 doubles       3       1
   5    beta      a      1 doubles       4       2
   6    beta      a      1 doubles       5       3
   7    alpha     a      1 doubles       6       7
   8    alpha     a      1 doubles       7       8
   9    alpha     a      1 doubles       8       9
  10    beta      a      1 doubles       9       7
  11    beta      a      1 doubles      10       8
  12    beta      a      1 doubles      11       9

 Global array virtual files algorithm will be used

 Parallel file system coherency ......... OK

 Integral file          = ./H6.aoints.0
 Record size in doubles =  65536        No. of integs per rec  =  43688
 Max. records in memory =    202        Max. records in file   = 229029
 No. of bits per label  =      8        No. of bits per value  =     64


 #quartets = 1.533D+05 #integrals = 7.741D+05 #direct =  0.0% #cached =100.0%


 Fock matrix recomputed
 1-e file size   =               36
 1-e file name   = ./H6.f1
 Cpu & wall time / sec            0.2            0.2
 4-electron integrals stored in orbital form

 v2    file size   =              231
 4-index algorithm nr.  13 is used
 imaxsize =       30
 imaxsize ichop =        0
 begin_one_electron_integrals
    1    1        -1.7747804691
    3    1        -0.1086773133
    5    1        -0.0599834197
    2    2        -1.6096166043
    4    2         0.1552943316
    6    2         0.0579567345
    1    3        -0.1086773133
    3    3        -1.5492799776
    5    3         0.1417838610
    2    4         0.1552943316
    4    4        -1.4111653267
    6    4         0.1903771859
    1    5        -0.0599834197
    3    5         0.1417838610
    5    5        -1.2122957631
    2    6         0.0579567345
    4    6         0.1903771859
    6    6        -1.0895463450
 end_one_electron_integrals
 begin_two_electron_integrals
    1    1    1    1        0.3302349961
    2    1    2    1        0.1076909358
    3    1    1    1        0.0624329626
    3    1    3    1        0.0882518571
    3    1    2    2       -0.0304971992
    4    1    2    1       -0.0385337731
    4    1    4    1        0.0611100250
    4    1    3    2       -0.0091450668
    5    1    1    1        0.0072141842
    5    1    3    1       -0.0241284590
    5    1    5    1        0.0352258975
    5    1    2    2        0.0289795896
    5    1    4    2       -0.0206160908
    5    1    3    3       -0.0078569158
    5    1    4    4        0.0020635188
    6    1    2    1       -0.0008452201
    6    1    4    1       -0.0248975165
    6    1    6    1        0.0364670831
    6    1    3    2        0.0221958622
    6    1    5    2       -0.0118870170
    6    1    4    3       -0.0192167166
    6    1    5    4        0.0079516215
    2    2    1    1        0.2617971903
    2    2    2    2        0.2917257852
    3    2    2    1       -0.0849627667
    3    2    3    2        0.1001567247
    4    2    1    1       -0.0577263908
    4    2    3    1       -0.0438388345
    4    2    2    2       -0.0074034681
    4    2    4    2        0.0589209389
    4    2    3    3       -0.0080512580
    5    2    2    1        0.0314915478
    5    2    4    1       -0.0367569992
    5    2    3    2       -0.0041833091
    5    2    5    2        0.0508262277
    5    2    4    3        0.0176590924
    6    2    1    1       -0.0085222315
    6    2    3    1        0.0293741252
    6    2    5    1       -0.0236970231
    6    2    2    2       -0.0380523603
    6    2    4    2        0.0029711744
    6    2    6    2        0.0275879167
    6    2    3    3       -0.0100246888
    6    2    5    3        0.0078523203
    6    2    4    4       -0.0029882334
    6    2    5    5       -0.0177547503
    3    3    1    1        0.2821188762
    3    3    3    1        0.0222759823
    3    3    2    2        0.2594576968
    3    3    3    3        0.2766666984
    4    3    2    1       -0.0579264679
    4    3    4    1        0.0091415195
    4    3    3    2        0.0548693390
    4    3    4    3        0.0631495019
    5    3    1    1       -0.0602128373
    5    3    3    1       -0.0420154357
    5    3    5    1       -0.0118258805
    5    3    2    2       -0.0136423067
    5    3    4    2        0.0471955921
    5    3    3    3       -0.0223853410
    5    3    5    3        0.0483934046
    5    3    4    4       -0.0147951700
    6    3    2    1        0.0456394611
    6    3    4    1       -0.0406280187
    6    3    6    1        0.0124999763
    6    3    3    2       -0.0163442464
    6    3    5    2        0.0274424221
    6    3    4    3       -0.0191430792
    6    3    6    3        0.0403167503
    6    3    5    4       -0.0100757223
    4    4    1    1        0.2702986933
    4    4    3    1        0.0189935710
    4    4    2    2        0.2490548630
    4    4    4    2       -0.0170382628
    4    4    3    3        0.2545975123
    4    4    4    4        0.2546398394
    5    4    2    1       -0.0748168375
    5    4    4    1        0.0032796837
    5    4    3    2        0.0778784311
    5    4    5    2       -0.0025830631
    5    4    4    3        0.0511177637
    5    4    5    4        0.0760575107
    6    4    1    1       -0.0687044258
    6    4    3    1       -0.0551210656
    6    4    5    1        0.0075890066
    6    4    2    2       -0.0097872598
    6    4    4    2        0.0357346040
    6    4    6    2       -0.0103709714
    6    4    3    3       -0.0372316180
    6    4    5    3        0.0346124272
    6    4    4    4       -0.0335849846
    6    4    6    4        0.0497668954
    6    4    5    5       -0.0052458826
    5    5    1    1        0.2389522508
    5    5    3    1       -0.0098026957
    5    5    5    1        0.0136512397
    5    5    2    2        0.2479770330
    5    5    4    2       -0.0069466999
    5    5    3    3        0.2345009876
    5    5    5    3       -0.0090180315
    5    5    4    4        0.2305689391
    5    5    5    5        0.2312569345
    6    5    2    1       -0.0664606921
    6    5    4    1        0.0150845432
    6    5    6    1       -0.0010032260
    6    5    3    2        0.0596076154
    6    5    5    2       -0.0086931774
    6    5    4    3        0.0437049008
    6    5    6    3       -0.0191167238
    6    5    5    4        0.0581465661
    6    5    6    5        0.0575651167
    6    6    1    1        0.2573914837
    6    6    3    1        0.0299707828
    6    6    5    1        0.0022749446
    6    6    2    2        0.2246383526
    6    6    4    2       -0.0263459394
    6    6    6    2       -0.0037413188
    6    6    3    3        0.2352573297
    6    6    5    3       -0.0277493752
    6    6    4    4        0.2296488113
    6    6    6    4       -0.0337742808
    6    6    5    5        0.2135263985
    6    6    6    6        0.2247735882
 end_two_electron_integrals
 enrep_tce =    3.2830188679245276     
  EHF(A)             =        -3.06441174
  EHF(total)         =        -3.06441174
  Shift (HFtot-HFA)  =         0.00000000
 Cpu & wall time / sec            3.3            3.3
 T1-number-of-tasks                    9

 t1 file size   =                9
 t1 file name   = ./H6.t1
 t1 file handle =       -998
 T2-number-of-boxes                  117

 t2 file size   =              117
 t2 file name   = ./H6.t2
 t2 file handle =       -996
CCSD iterations
 ---------------------------------------------------------
 Iter          Residuum       Correlation     Cpu    Wall 
 ---------------------------------------------------------
NEW TASK SCHEDULING
CCSD_T1_NTS --- OK
CCSD_T2_NTS --- OK
    1   0.0845535095572  -0.0433026593238     0.6     0.9
    2   0.0415460888457  -0.0592842835037     0.6     0.8
    3   0.0233063385598  -0.0662905399890     0.6     0.8
    4   0.0145256175736  -0.0696313999393     0.6     0.8
    5   0.0098156707624  -0.0713826720556     0.6     0.8
 MICROCYCLE DIIS UPDATE:                    5                    5
    6   0.0017641723958  -0.0740572514687     0.6     0.9
    7   0.0009268446263  -0.0741344581405     0.6     0.8
    8   0.0006804701128  -0.0741519756097     0.5     0.8
    9   0.0005061620684  -0.0741663069075     0.6     0.9
   10   0.0003797504766  -0.0741776538307     0.6     0.8
 MICROCYCLE DIIS UPDATE:                   10                    5
   11   0.0000850159633  -0.0742095424253     0.6     0.8
   12   0.0000546821872  -0.0742168696478     0.6     0.8
   13   0.0000370641250  -0.0742221174795     0.6     0.8
   14   0.0000267739112  -0.0742248407794     0.6     0.8
   15   0.0000194633550  -0.0742266818428     0.6     0.8
 MICROCYCLE DIIS UPDATE:                   15                    5
   16   0.0000049103863  -0.0742308205771     0.5     0.8
   17   0.0000031529348  -0.0742308889150     0.5     0.8
   18   0.0000023232778  -0.0742309277223     0.6     0.9
   19   0.0000017335262  -0.0742309665144     0.6     0.9
   20   0.0000012999713  -0.0742310044673     0.6     0.8
 MICROCYCLE DIIS UPDATE:                   20                    5
   21   0.0000002130980  -0.0742311410308     0.5     0.8
   22   0.0000001302727  -0.0742311583259     0.6     0.8
   23   0.0000000872392  -0.0742311697470     0.6     0.8
   24   0.0000000646393  -0.0742311752658     0.6     0.8
   25   0.0000000474857  -0.0742311791853     0.6     0.8
 MICROCYCLE DIIS UPDATE:                   25                    5
   26   0.0000000121101  -0.0742311884513     0.6     0.8
   27   0.0000000083832  -0.0742311888183     0.7     0.9
 -----------------------------------------------------------------
 Iterations converged
 CCSD correlation energy / hartree =        -0.074231188818251
 CCSD total energy / hartree       =        -3.138642925494684

 Singles contributions
     5a   (alpha) ---     3a   (alpha)        0.0319784752

 Doubles contributions
     4a   (alpha)     5a   (alpha) ---     2a   (alpha)     3a   (alpha)       -0.0495390048
     4a   (alpha)     6a   (alpha) ---     1a   (alpha)     3a   (alpha)        0.0349196722
     4a   (alpha)     4a   (beta ) ---     1a   (alpha)     1a   (beta )       -0.0537608435
     4a   (alpha)     4a   (beta ) ---     2a   (alpha)     2a   (beta )       -0.0798205878
     4a   (alpha)     4a   (beta ) ---     3a   (alpha)     3a   (beta )       -0.2543754539
     4a   (alpha)     5a   (beta ) ---     1a   (alpha)     2a   (beta )        0.0410622226
     4a   (alpha)     5a   (beta ) ---     2a   (alpha)     1a   (beta )        0.0216078956
     4a   (alpha)     5a   (beta ) ---     2a   (alpha)     3a   (beta )       -0.1107552173
     4a   (alpha)     5a   (beta ) ---     3a   (alpha)     2a   (beta )       -0.0612162125
     4a   (alpha)     6a   (beta ) ---     1a   (alpha)     1a   (beta )        0.0244587799
     4a   (alpha)     6a   (beta ) ---     1a   (alpha)     3a   (beta )        0.0769158843
     4a   (alpha)     6a   (beta ) ---     3a   (alpha)     1a   (beta )        0.0419962122
     4a   (alpha)     6a   (beta ) ---     3a   (alpha)     3a   (beta )        0.0309709524
     5a   (alpha)     4a   (beta ) ---     1a   (alpha)     2a   (beta )        0.0216078956
     5a   (alpha)     4a   (beta ) ---     2a   (alpha)     1a   (beta )        0.0410622226
     5a   (alpha)     4a   (beta ) ---     2a   (alpha)     3a   (beta )       -0.0612162125
     5a   (alpha)     4a   (beta ) ---     3a   (alpha)     2a   (beta )       -0.1107552173
     5a   (alpha)     5a   (beta ) ---     1a   (alpha)     1a   (beta )       -0.0373261737
     5a   (alpha)     5a   (beta ) ---     1a   (alpha)     3a   (beta )        0.0242727748
     5a   (alpha)     5a   (beta ) ---     2a   (alpha)     2a   (beta )       -0.0839199978
     5a   (alpha)     5a   (beta ) ---     3a   (alpha)     1a   (beta )        0.0242727748
     5a   (alpha)     5a   (beta ) ---     3a   (alpha)     3a   (beta )       -0.0610110458
     5a   (alpha)     6a   (beta ) ---     1a   (alpha)     2a   (beta )        0.0381338409
     5a   (alpha)     6a   (beta ) ---     2a   (alpha)     1a   (beta )        0.0230051838
     5a   (alpha)     6a   (beta ) ---     2a   (alpha)     3a   (beta )       -0.0259852874
     6a   (alpha)     4a   (beta ) ---     1a   (alpha)     1a   (beta )        0.0244587799
     6a   (alpha)     4a   (beta ) ---     1a   (alpha)     3a   (beta )        0.0419962122
     6a   (alpha)     4a   (beta ) ---     3a   (alpha)     1a   (beta )        0.0769158843
     6a   (alpha)     4a   (beta ) ---     3a   (alpha)     3a   (beta )        0.0309709524
     6a   (alpha)     5a   (beta ) ---     1a   (alpha)     2a   (beta )        0.0230051838
     6a   (alpha)     5a   (beta ) ---     2a   (alpha)     1a   (beta )        0.0381338409
     6a   (alpha)     5a   (beta ) ---     3a   (alpha)     2a   (beta )       -0.0259852874
     6a   (alpha)     6a   (beta ) ---     1a   (alpha)     1a   (beta )       -0.0427242653
     6a   (alpha)     6a   (beta ) ---     2a   (alpha)     2a   (beta )       -0.0224813333
     6a   (alpha)     6a   (beta ) ---     3a   (alpha)     3a   (beta )       -0.0292993982
 Ground state specification:
 exp(T)|Ref>~(1+T)|Ref>
 ------- a(p)+/a(q) strings ----------

 singles norm

 doubles norm

 Reference string
  0.95816024563303470      :(1a)+ (2a)+ (3a)+ (1b)+ (2b)+ (3b)+ |0>

 Singles strings

 Doubles strings
 -0.24373244734688743      :(4a)+ (4b)+ (3b)  (3a)  (1a)+ (2a)+ (3a)+ (1b)+ (2b)+ (3b)+ |0>
 -0.10612124622039472      :(4a)+ (5b)+ (3b)  (2a)  (1a)+ (2a)+ (3a)+ (1b)+ (2b)+ (3b)+ |0>
 -0.10612124622039473      :(5a)+ (4b)+ (2b)  (3a)  (1a)+ (2a)+ (3a)+ (1b)+ (2b)+ (3b)+ |0>
 -------------------------------------

 Parallel integral file used      18 records with       0 large values


 Task  times  cpu:       20.0s     wall:       27.4s


                                NWChem Input Module
                                -------------------


 Summary of allocated global arrays
-----------------------------------
  No active global arrays


MA_summarize_allocated_blocks: starting scan ...
MA_summarize_allocated_blocks: scan completed: 0 heap blocks, 0 stack blocks
MA usage statistics:

	allocation statistics:
					      heap	     stack
					      ----	     -----
	current number of blocks	         0	         0
	maximum number of blocks	        17	        42
	current total bytes		         0	         0
	maximum total bytes		 105925112	  32972408
	maximum total K-bytes		    105926	     32973
	maximum total M-bytes		       106	        33


                                     CITATION
                                     --------
                Please cite the following reference when publishing
                           results obtained with NWChem:

          E. Apra, E. J. Bylaska, W. A. de Jong, N. Govind, K. Kowalski,
       T. P. Straatsma, M. Valiev, H. J. J. van Dam, Y. Alexeev, J. Anchell,
       V. Anisimov, F. W. Aquino, R. Atta-Fynn, J. Autschbach, N. P. Bauman,
     J. C. Becca, D. E. Bernholdt, K. Bhaskaran-Nair, S. Bogatko, P. Borowski,
         J. Boschen, J. Brabec, A. Bruner, E. Cauet, Y. Chen, G. N. Chuev,
      C. J. Cramer, J. Daily, M. J. O. Deegan, T. H. Dunning Jr., M. Dupuis,
   K. G. Dyall, G. I. Fann, S. A. Fischer, A. Fonari, H. Fruchtl, L. Gagliardi,
      J. Garza, N. Gawande, S. Ghosh, K. Glaesemann, A. W. Gotz, J. Hammond,
       V. Helms, E. D. Hermes, K. Hirao, S. Hirata, M. Jacquelin, L. Jensen,
   B. G. Johnson, H. Jonsson, R. A. Kendall, M. Klemm, R. Kobayashi, V. Konkov,
      S. Krishnamoorthy, M. Krishnan, Z. Lin, R. D. Lins, R. J. Littlefield,
      A. J. Logsdail, K. Lopata, W. Ma, A. V. Marenich, J. Martin del Campo,
   D. Mejia-Rodriguez, J. E. Moore, J. M. Mullin, T. Nakajima, D. R. Nascimento,
    J. A. Nichols, P. J. Nichols, J. Nieplocha, A. Otero-de-la-Roza, B. Palmer,
    A. Panyala, T. Pirojsirikul, B. Peng, R. Peverati, J. Pittner, L. Pollack,
   R. M. Richard, P. Sadayappan, G. C. Schatz, W. A. Shelton, D. W. Silverstein,
   D. M. A. Smith, T. A. Soares, D. Song, M. Swart, H. L. Taylor, G. S. Thomas,
            V. Tipparaju, D. G. Truhlar, K. Tsemekhman, T. Van Voorhis,
      A. Vazquez-Mayagoitia, P. Verma, O. Villa, A. Vishnu, K. D. Vogiatzis,
        D. Wang, J. H. Weare, M. J. Williamson, T. L. Windus, K. Wolinski,
        A. T. Wong, Q. Wu, C. Yang, Q. Yu, M. Zacharias, Z. Zhang, Y. Zhao,
                                and R. J. Harrison
                        "NWChem: Past, present, and future
                         J. Chem. Phys. 152, 184102 (2020)
                               doi:10.1063/5.0004997

                                      AUTHORS
                                      -------
  E. Apra, E. J. Bylaska, N. Govind, K. Kowalski, M. Valiev, D. Mejia-Rodriguez,
       A. Kunitsa, N. P. Bauman, A. Panyala, W. A. de Jong, T. P. Straatsma,
        H. J. J. van Dam, D. Wang, T. L. Windus, J. Hammond, J. Autschbach,
    K. Bhaskaran-Nair, J. Brabec, K. Lopata, S. A. Fischer, S. Krishnamoorthy,
     M. Jacquelin, W. Ma, M. Klemm, O. Villa, Y. Chen, V. Anisimov, F. Aquino,
    S. Hirata, M. T. Hackler, Eric Hermes, L. Jensen, J. E. Moore, J. C. Becca,
      V. Konjkov, T. Risthaus, M. Malagoli, A. Marenich, A. Otero-de-la-Roza,
        J. Mullin, P. Nichols, R. Peverati, J. Pittner, Y. Zhao, P.-D. Fan,
        A. Fonari, M. J. Williamson, R. J. Harrison, J. R. Rehr, M. Dupuis,
     D. Silverstein, D. M. A. Smith, J. Nieplocha, V. Tipparaju, M. Krishnan,
     B. E. Van Kuiken, A. Vazquez-Mayagoitia, M. Swart, Q. Wu, T. Van Voorhis,
     A. A. Auer, M. Nooijen, L. D. Crosby, E. Brown, G. Cisneros, G. I. Fann,
   H. Fruchtl, J. Garza, K. Hirao, R. A. Kendall, J. A. Nichols, K. Tsemekhman,
    K. Wolinski, J. Anchell, D. E. Bernholdt, P. Borowski, T. Clark, D. Clerc,
   H. Dachsel, M. J. O. Deegan, K. Dyall, D. Elwood, E. Glendening, M. Gutowski,
   A. C. Hess, J. Jaffe, B. G. Johnson, J. Ju, R. Kobayashi, R. Kutteh, Z. Lin,
   R. Littlefield, X. Long, B. Meng, T. Nakajima, S. Niu, L. Pollack, M. Rosing,
   K. Glaesemann, G. Sandrone, M. Stave, H. Taylor, G. Thomas, J. H. van Lenthe,
                               A. T. Wong, Z. Zhang.

 Total times  cpu:       20.0s     wall:       27.4s
