 argument  1 = input.nw
  NWChem w/ OpenMP: maximum threads =    1



============================== echo of input deck ==============================
 echo
 start Li2
 title "Li2"

 memory total 24 gb

 geometry units bohr
 symmetry c1
        Li  0.00000000  0.00000000  0.00000000
        Li  0.00000000  11.1  0.00000000
 end

 basis
   * library cc-pVTZ
 end

 mcscf
   active  4
   actelec 6
   multiplicity 1
   maxiter 40
   vectors input Li2.mos
   vectors output Li2.mos
 end

 task mcscf

 scf
   vectors input Li2.mos
   vectors output Li2-11.1.mos
   noscf
 end

 tce
   2eorb
   2emet 13
   ccsd
   maxiter 300
#   lshift 0.8
 end

# set tce:print_integrals T
# set tce:qorb 10
# set tce:qela 1
# set tce:qelb 1

 set tce:qducc T
 set tce:nactv 1
 set tce:nonhf T
 set tce:ducc_model 3

 set tce:printtol 0.02

 task tce
================================================================================


                                         
                                         


             Northwest Computational Chemistry Package (NWChem) 7.0.1
             --------------------------------------------------------


                    Environmental Molecular Sciences Laboratory
                       Pacific Northwest National Laboratory
                                Richland, WA 99352

                              Copyright (c) 1994-2020
                       Pacific Northwest National Laboratory
                            Battelle Memorial Institute

             NWChem is an open-source computational chemistry package
                        distributed under the terms of the
                      Educational Community License (ECL) 2.0
             A copy of the license is included with this distribution
                              in the LICENSE.TXT file

                                  ACKNOWLEDGMENT
                                  --------------

            This software and its documentation were developed at the
            EMSL at Pacific Northwest National Laboratory, a multiprogram
            national laboratory, operated for the U.S. Department of Energy
            by Battelle under Contract Number DE-AC05-76RL01830. Support
            for this work was provided by the Department of Energy Office
            of Biological and Environmental Research, Office of Basic
            Energy Sciences, and the Office of Advanced Scientific Computing.


           Job information
           ---------------

    hostname        = WE46210
    program         = /home/baum612/code/nwchem/bin/LINUX64/nwchem
    date            = Tue Nov 14 13:34:33 2023

    compiled        = Mon_Nov_06_10:06:57_2023
    source          = /home/baum612/code/nwchem
    nwchem branch   = 7.0.0
    nwchem revision = nwchem_on_git-4191-g39d87d64de
    ga revision     = 5.8.1
    use scalapack   = F
    input           = input.nw
    prefix          = Li2.
    data base       = ./Li2.db
    status          = startup
    nproc           =        1
    time left       =     -1s



           Memory information
           ------------------

    heap     =  805306362 doubles =   6144.0 Mbytes
    stack    =  805306367 doubles =   6144.0 Mbytes
    global   = 1610612736 doubles =  12288.0 Mbytes (distinct from heap & stack)
    total    = 3221225465 doubles =  24576.0 Mbytes
    verify   = yes
    hardfail = no 


           Directory information
           ---------------------

  0 permanent = .
  0 scratch   = .




                                NWChem Input Module
                                -------------------


                                        Li2
                                        ---
 Turning off AUTOSYM since
 SYMMETRY directive was detected!


          ------
          auto-z
          ------
     1 autoz failed with cvr_scaling = 1.2 changing to 1.3
     2 autoz failed with cvr_scaling = 1.3 changing to 1.4
     3 autoz failed with cvr_scaling = 1.4 changing to 1.5
     4 autoz failed with cvr_scaling = 1.5 changing to 1.6
     5 autoz failed with cvr_scaling = 1.6 changing to 1.7

 AUTOZ failed to generate good internal coordinates.
 Cartesian coordinates will be used in optimizations.



                             Geometry "geometry" -> ""
                             -------------------------

 Output coordinates in a.u. (scale by  1.000000000 to convert to a.u.)

  No.       Tag          Charge          X              Y              Z
 ---- ---------------- ---------- -------------- -------------- --------------
    1 Li                   3.0000     0.00000000    -5.55000000     0.00000000
    2 Li                   3.0000     0.00000000     5.55000000     0.00000000

      Atomic Mass 
      ----------- 

      Li                 7.016000


 Effective nuclear repulsion energy (a.u.)       0.8108108108

            Nuclear Dipole moment (a.u.) 
            ----------------------------
        X                 Y               Z
 ---------------- ---------------- ----------------
     0.0000000000     0.0000000000     0.0000000000


            XYZ format geometry
            -------------------
     2
 geometry
 Li                    0.00000000    -2.93693373     0.00000000
 Li                    0.00000000     2.93693373     0.00000000



 Summary of "ao basis" -> "" (cartesian)
 ------------------------------------------------------------------------------
       Tag                 Description            Shells   Functions and Types
 ---------------- ------------------------------  ------  ---------------------
 *                          cc-pVTZ                   on all atoms 


                      Basis "ao basis" -> "ao basis" (cartesian)
                      -----
  Li (Lithium)
  ------------
            Exponent  Coefficients 
       -------------- ---------------------------------------------------------
  1 S  5.98800000E+03  0.000133
  1 S  8.98900000E+02  0.001025
  1 S  2.05900000E+02  0.005272
  1 S  5.92400000E+01  0.020929
  1 S  1.98700000E+01  0.066340
  1 S  7.40600000E+00  0.165775
  1 S  2.93000000E+00  0.315038
  1 S  1.18900000E+00  0.393523
  1 S  4.79800000E-01  0.190870

  2 S  5.98800000E+03 -0.000021
  2 S  8.98900000E+02 -0.000161
  2 S  2.05900000E+02 -0.000820
  2 S  5.92400000E+01 -0.003326
  2 S  1.98700000E+01 -0.010519
  2 S  7.40600000E+00 -0.028097
  2 S  2.93000000E+00 -0.055936
  2 S  1.18900000E+00 -0.099237
  2 S  4.79800000E-01 -0.112189

  3 S  7.50900000E-02  1.000000

  4 S  2.83200000E-02  1.000000

  5 P  3.26600000E+00  0.008630
  5 P  6.51100000E-01  0.047538
  5 P  1.69600000E-01  0.209772

  6 P  5.57800000E-02  1.000000

  7 P  2.05000000E-02  1.000000

  8 D  1.87400000E-01  1.000000

  9 D  8.01000000E-02  1.000000

 10 F  1.82900000E-01  1.000000



 Summary of "ao basis" -> "ao basis" (cartesian)
 ------------------------------------------------------------------------------
       Tag                 Description            Shells   Functions and Types
 ---------------- ------------------------------  ------  ---------------------
 Li                         cc-pVTZ                 10       35   4s3p2d1f



                            NWChem Direct MCSCF Module
                            --------------------------


                                        Li2


     -----------------------------------
       Basis functions:             70
       Inactive shells:              0
       Active shells:                4
       Active electrons:             6
       Symmetry:                    a       
       Multiplicity:                 1
       Orbital rotations:          264
     -----------------------------------

     -----------------------------------
       E2 extrapolation:             F
       Conjugacy:                    T
       Micro CI relax:               T
       Canonical orbitals:           T
       Maximum iterations:          40
       Converge threshold:    1.00E-04
       Conjugacy resets:            20
       Initial levelshift:        0.10
     -----------------------------------

 Loading old vectors from job with title :

Li2


   input molecular orbitals = ./Li2.mos
  output molecular orbtials = ./Li2.mos

       No. of determinants:            16


  Starting Orbital Energies
    -2.478364    -2.478364    -0.116275    -0.079483     0.026708     0.026708
     0.031407     0.041195     0.041195     0.047799     0.101666     0.112415
     0.118151     0.118151     0.121709     0.123242     0.123242     0.134626
     0.209483     0.209483     0.219186     0.224896     0.224896     0.231822
     0.231822     0.256536     0.256536     0.301344     0.360937     0.360937
     0.363664     0.372438     0.372438     0.394032     0.398084     0.445762
     0.713444     0.713444     0.726533     0.726533     0.732293     0.732951
     0.732951     0.738670     0.740432     0.740432     0.751302     0.751302
     0.751453     0.751453     0.751519     0.751519     0.752318     0.752318
     0.752386     0.752386     0.755298     0.771618     0.771618     0.837803
     0.927231     0.927231     0.935178     0.935178     0.944713     0.962552
     1.352690     1.374056     6.358981     6.363922

  Orbital Symmetry Irreps
a    a    a    a    a    a    a    a    a    a    a    a    a    a    a   
a    a    a    a    a    a    a    a    a    a    a    a    a    a    a   
a    a    a    a    a    a    a    a    a    a    a    a    a    a    a   
a    a    a    a    a    a    a    a    a    a    a    a    a    a    a   
a    a    a    a    a    a    a    a    a    a   

 Integral file          = ./Li2.aoints.0
 Record size in doubles =  65536        No. of integs per rec  =  43688
 Max. records in memory =     99        Max. records in file   = 280068
 No. of bits per label  =      8        No. of bits per value  =     64


 #quartets = 2.112D+04 #integrals = 7.833D+05 #direct =  0.0% #cached =100.0%




          %%%%% MacroIteration   1 %%%%%


          Number of sigma calls:        5
                       o<<<<< (aa):             0.00
                       o<<<<< (bb):             0.00
                       o<<<<< (ab):             0.00
                       o<<<<< (total)           0.00
                       o<<<<< (aa) ff           0.00
                       o<<<<< (aa) gop          0.00
                       o<<<<< (aa) dot          0.00
                       o<<<<< (ab) str          0.00
                       o<<<<< (ab) gath         0.00
                       o<<<<< (ab) dotab        0.00
                       o<<<<< (ab) scat         0.00
                       o<<<<< (ab) sync         0.00
                       o<<<<< Density           0.00
                       o<<<<< Density one       0.00
                       o<<<<< Density two       0.00
                       o<<<<< Density ab        0.00
                       o<<<<< Spin adapt        0.00
                       o<<<<< Symm adapt        0.00

                       o<<<<< (ab) max sync:      0.00

           >>>| Valence CI:            -15.676768601334
           >>>| MCSCF energy:          -14.865957790524
           >>>| Gradient norm:          0.420799007D-03
     --- Warning:   17 Hessian diagonals < 0.05 ---

                              ----- Line search ------

        step       energy         lsg     num-lsg   num-lsh   lsrat    time
      ------- ---------------- --------- --------- --------- ------- --------
       0.0000     -14.86595779 -1.93D-07  0.00D+00  0.00D+00 0.0D+00      0.9

          Number of sigma calls:        4
                       o<<<<< (aa):             0.00
                       o<<<<< (bb):             0.00
                       o<<<<< (ab):             0.00
                       o<<<<< (total)           0.00
                       o<<<<< (aa) ff           0.00
                       o<<<<< (aa) gop          0.00
                       o<<<<< (aa) dot          0.00
                       o<<<<< (ab) str          0.00
                       o<<<<< (ab) gath         0.00
                       o<<<<< (ab) dotab        0.00
                       o<<<<< (ab) scat         0.00
                       o<<<<< (ab) sync         0.00
                       o<<<<< Density           0.00
                       o<<<<< Density one       0.00
                       o<<<<< Density two       0.00
                       o<<<<< Density ab        0.00
                       o<<<<< Spin adapt        0.00
                       o<<<<< Symm adapt        0.00

                       o<<<<< (ab) max sync:      0.00
       1.0000     -14.86595790 -2.23D-08 -2.23D-08  1.71D-07 1.2D-01      1.0

          Number of sigma calls:        3
                       o<<<<< (aa):             0.00
                       o<<<<< (bb):             0.00
                       o<<<<< (ab):             0.00
                       o<<<<< (total)           0.00
                       o<<<<< (aa) ff           0.00
                       o<<<<< (aa) gop          0.00
                       o<<<<< (aa) dot          0.00
                       o<<<<< (ab) str          0.00
                       o<<<<< (ab) gath         0.00
                       o<<<<< (ab) dotab        0.00
                       o<<<<< (ab) scat         0.00
                       o<<<<< (ab) sync         0.00
                       o<<<<< Density           0.00
                       o<<<<< Density one       0.00
                       o<<<<< Density two       0.00
                       o<<<<< Density ab        0.00
                       o<<<<< Spin adapt        0.00
                       o<<<<< Symm adapt        0.00

                       o<<<<< (ab) max sync:      0.00
       1.1307     -14.86595790  2.56D-12  2.04D-12  1.71D-07 1.3D-05      1.1
     --- Orbitals canonicalized ---



          %%%%% MacroIteration   2 %%%%%


          Number of sigma calls:        5
                       o<<<<< (aa):             0.00
                       o<<<<< (bb):             0.00
                       o<<<<< (ab):             0.00
                       o<<<<< (total)           0.00
                       o<<<<< (aa) ff           0.00
                       o<<<<< (aa) gop          0.00
                       o<<<<< (aa) dot          0.00
                       o<<<<< (ab) str          0.00
                       o<<<<< (ab) gath         0.00
                       o<<<<< (ab) dotab        0.00
                       o<<<<< (ab) scat         0.00
                       o<<<<< (ab) sync         0.00
                       o<<<<< Density           0.00
                       o<<<<< Density one       0.00
                       o<<<<< Density two       0.00
                       o<<<<< Density ab        0.00
                       o<<<<< Spin adapt        0.00
                       o<<<<< Symm adapt        0.00

                       o<<<<< (ab) max sync:      0.00

           >>>| Valence CI:            -15.676768710585
           >>>| MCSCF energy:          -14.865957899774
           >>>| Gradient norm:          0.467384923D-04




     ==============================
            MCSCF Converged
     ==============================



          Canonical Eigenvalues

              1      
    1   -2.4783
    2   -2.4783
    3   -0.1156
    4   -0.0802
    5    0.0268
    6    0.0268
    7    0.0313
    8    0.0410
    9    0.0410
   10    0.0477
   11    0.1016
   12    0.1129
   13    0.1182
   14    0.1182
   15    0.1212
   16    0.1231
   17    0.1231
   18    0.1343
   19    0.2101
   20    0.2101
   21    0.2179
   22    0.2251
   23    0.2251
   24    0.2316
   25    0.2316
   26    0.2553
   27    0.2553
   28    0.3000
   29    0.3610
   30    0.3610
   31    0.3625
   32    0.3722
   33    0.3722
   34    0.3936
   35    0.3983
   36    0.4441
   37    0.7139
   38    0.7139
   39    0.7267
   40    0.7267
   41    0.7309
   42    0.7328
   43    0.7328
   44    0.7390
   45    0.7407
   46    0.7407
   47    0.7513
   48    0.7513
   49    0.7515
   50    0.7515
   51    0.7515
   52    0.7515
   53    0.7523
   54    0.7523
   55    0.7523
   56    0.7523
   57    0.7551
   58    0.7698
   59    0.7698
   60    0.8340
   61    0.9272
   62    0.9272
   63    0.9351
   64    0.9351
   65    0.9431
   66    0.9621
   67    1.3528
   68    1.3733
   69    6.3599
   70    6.3630


          Converged CI vector

   Index           Coefficient          Config. Occupation
         1          0.77995010          1  2  3  1  2  3
         6         -0.62584094          1  2  4  1  2  4

          Number of sigma calls:        1
                       o<<<<< (aa):             0.00
                       o<<<<< (bb):             0.00
                       o<<<<< (ab):             0.00
                       o<<<<< (total)           0.00
                       o<<<<< (aa) ff           0.00
                       o<<<<< (aa) gop          0.00
                       o<<<<< (aa) dot          0.00
                       o<<<<< (ab) str          0.00
                       o<<<<< (ab) gath         0.00
                       o<<<<< (ab) dotab        0.00
                       o<<<<< (ab) scat         0.00
                       o<<<<< (ab) sync         0.00
                       o<<<<< Density           0.00
                       o<<<<< Density one       0.00
                       o<<<<< Density two       0.00
                       o<<<<< Density ab        0.00
                       o<<<<< Spin adapt        0.00
                       o<<<<< Symm adapt        0.00

                       o<<<<< (ab) max sync:      0.00



          Natural orbital occupation numbers

              1      
    1    2.0000
    2    2.0000
    3    1.2166
    4    0.7834


          Number of sigma calls:        5
                       o<<<<< (aa):             0.00
                       o<<<<< (bb):             0.00
                       o<<<<< (ab):             0.00
                       o<<<<< (total)           0.00
                       o<<<<< (aa) ff           0.00
                       o<<<<< (aa) gop          0.00
                       o<<<<< (aa) dot          0.00
                       o<<<<< (ab) str          0.00
                       o<<<<< (ab) gath         0.00
                       o<<<<< (ab) dotab        0.00
                       o<<<<< (ab) scat         0.00
                       o<<<<< (ab) sync         0.00
                       o<<<<< Density           0.00
                       o<<<<< Density one       0.00
                       o<<<<< Density two       0.00
                       o<<<<< Density ab        0.00
                       o<<<<< Spin adapt        0.00
                       o<<<<< Symm adapt        0.00

                       o<<<<< (ab) max sync:      0.00


       Final MCSCF results 
       ------------------- 

       Total MCSCF energy =    -14.865957899774
            Gradient norm =      4.7D-05

    CPU time for solution =      1.0s
   Wall time for solution =      1.0s



                        Analysis of MCSCF natural orbitals
                        ----------------------------------

 Vector    1  Occ=2.000000D+00  E=-2.478334D+00  Symmetry=a
              MO Center=  2.7D-13,  6.0D-08, -4.9D-14, r^2= 8.8D+00
   Bfn.  Coefficient  Atom+Function         Bfn.  Coefficient  Atom+Function  
  ----- ------------  ---------------      ----- ------------  ---------------
     1      0.704559  1 Li s                 36      0.704559  2 Li s          

 Vector    2  Occ=2.000000D+00  E=-2.478334D+00  Symmetry=a
              MO Center=  6.4D-14, -6.0D-08,  1.8D-14, r^2= 8.8D+00
   Bfn.  Coefficient  Atom+Function         Bfn.  Coefficient  Atom+Function  
  ----- ------------  ---------------      ----- ------------  ---------------
     1      0.704539  1 Li s                 36     -0.704539  2 Li s          

 Vector    3  Occ=1.216645D+00  E=-1.155778D-01  Symmetry=a
              MO Center=  9.2D-13,  5.5D-12, -2.7D-12, r^2= 1.3D+01
   Bfn.  Coefficient  Atom+Function         Bfn.  Coefficient  Atom+Function  
  ----- ------------  ---------------      ----- ------------  ---------------
     3      0.377387  1 Li s                 38      0.377387  2 Li s          
     4      0.369995  1 Li s                 39      0.369995  2 Li s          
     2      0.184927  1 Li s                 37      0.184927  2 Li s          

 Vector    4  Occ=7.833552D-01  E=-8.022300D-02  Symmetry=a
              MO Center=  2.5D-12,  6.8D-12,  8.1D-13, r^2= 1.4D+01
   Bfn.  Coefficient  Atom+Function         Bfn.  Coefficient  Atom+Function  
  ----- ------------  ---------------      ----- ------------  ---------------
     3      0.435263  1 Li s                 38     -0.435263  2 Li s          
     4      0.378090  1 Li s                 39     -0.378090  2 Li s          
     2      0.202045  1 Li s                 37     -0.202045  2 Li s          

 Vector    5  Occ=0.000000D+00  E= 2.675643D-02  Symmetry=a
              MO Center= -3.7D-12, -3.1D-11,  3.7D-12, r^2= 2.4D+01
   Bfn.  Coefficient  Atom+Function         Bfn.  Coefficient  Atom+Function  
  ----- ------------  ---------------      ----- ------------  ---------------
    13     -0.477586  1 Li pz                48     -0.477586  2 Li pz         
    11      0.456852  1 Li px                46      0.456852  2 Li px         

 Vector    6  Occ=0.000000D+00  E= 2.675643D-02  Symmetry=a
              MO Center=  3.8D-13, -3.1D-11,  7.4D-13, r^2= 2.4D+01
   Bfn.  Coefficient  Atom+Function         Bfn.  Coefficient  Atom+Function  
  ----- ------------  ---------------      ----- ------------  ---------------
    11      0.477586  1 Li px                46      0.477586  2 Li px         
    13      0.456852  1 Li pz                48      0.456852  2 Li pz         

 Vector    7  Occ=0.000000D+00  E= 3.131112D-02  Symmetry=a
              MO Center= -2.5D-13, -7.6D-11,  1.2D-13, r^2= 2.7D+01
   Bfn.  Coefficient  Atom+Function         Bfn.  Coefficient  Atom+Function  
  ----- ------------  ---------------      ----- ------------  ---------------
    12      0.636892  1 Li py                47     -0.636892  2 Li py         
     4     -0.315479  1 Li s                 39     -0.315479  2 Li s          

 Vector    8  Occ=0.000000D+00  E= 4.103102D-02  Symmetry=a
              MO Center= -3.0D-13,  3.0D-11, -4.5D-13, r^2= 3.0D+01
   Bfn.  Coefficient  Atom+Function         Bfn.  Coefficient  Atom+Function  
  ----- ------------  ---------------      ----- ------------  ---------------
    13      0.897706  1 Li pz                48     -0.897706  2 Li pz         

 Vector    9  Occ=0.000000D+00  E= 4.103102D-02  Symmetry=a
              MO Center= -7.7D-12,  3.0D-11,  8.8D-14, r^2= 3.0D+01
   Bfn.  Coefficient  Atom+Function         Bfn.  Coefficient  Atom+Function  
  ----- ------------  ---------------      ----- ------------  ---------------
    11      0.897706  1 Li px                46     -0.897706  2 Li px         

 Vector   10  Occ=0.000000D+00  E= 4.772173D-02  Symmetry=a
              MO Center=  3.2D-12,  5.5D-11,  9.5D-13, r^2= 4.5D+01
   Bfn.  Coefficient  Atom+Function         Bfn.  Coefficient  Atom+Function  
  ----- ------------  ---------------      ----- ------------  ---------------
    12      1.348281  1 Li py                47      1.348281  2 Li py         
     4      0.532113  1 Li s                 39     -0.532113  2 Li s          
     9     -0.273695  1 Li py                44     -0.273695  2 Li py         

 Vector   11  Occ=0.000000D+00  E= 1.015523D-01  Symmetry=a
              MO Center= -3.4D-12, -1.7D-12,  1.0D-13, r^2= 2.7D+01
   Bfn.  Coefficient  Atom+Function         Bfn.  Coefficient  Atom+Function  
  ----- ------------  ---------------      ----- ------------  ---------------
     4      1.842008  1 Li s                 39      1.842008  2 Li s          
     3     -1.437014  1 Li s                 38     -1.437014  2 Li s          
    23     -0.416918  1 Li dyy               58     -0.416918  2 Li dyy        
    20     -0.332294  1 Li dxx               25     -0.332294  1 Li dzz        
    55     -0.332294  2 Li dxx               60     -0.332294  2 Li dzz        

 Vector   12  Occ=0.000000D+00  E= 1.128874D-01  Symmetry=a
              MO Center= -1.1D-12, -3.6D-11,  6.8D-13, r^2= 2.2D+01
   Bfn.  Coefficient  Atom+Function         Bfn.  Coefficient  Atom+Function  
  ----- ------------  ---------------      ----- ------------  ---------------
     9      1.299289  1 Li py                44     -1.299289  2 Li py         
    12     -0.933371  1 Li py                47      0.933371  2 Li py         
     3      0.355207  1 Li s                 38      0.355207  2 Li s          
     4     -0.313269  1 Li s                 39     -0.313269  2 Li s          
    23      0.270961  1 Li dyy               58      0.270961  2 Li dyy        

 Vector   13  Occ=0.000000D+00  E= 1.182194D-01  Symmetry=a
              MO Center=  1.2D-12, -8.6D-11, -3.7D-12, r^2= 2.2D+01
   Bfn.  Coefficient  Atom+Function         Bfn.  Coefficient  Atom+Function  
  ----- ------------  ---------------      ----- ------------  ---------------
    10      1.134063  1 Li pz                45      1.134063  2 Li pz         
    13     -0.706244  1 Li pz                48     -0.706244  2 Li pz         
     8     -0.481221  1 Li px                43     -0.481221  2 Li px         
    11      0.299683  1 Li px                46      0.299683  2 Li px         

 Vector   14  Occ=0.000000D+00  E= 1.182194D-01  Symmetry=a
              MO Center=  3.8D-12, -8.8D-11,  1.9D-12, r^2= 2.2D+01
   Bfn.  Coefficient  Atom+Function         Bfn.  Coefficient  Atom+Function  
  ----- ------------  ---------------      ----- ------------  ---------------
     8      1.134063  1 Li px                43      1.134063  2 Li px         
    11     -0.706244  1 Li px                46     -0.706244  2 Li px         
    10      0.481221  1 Li pz                45      0.481221  2 Li pz         
    13     -0.299683  1 Li pz                48     -0.299683  2 Li pz         


 Wrote Lagrangian and 1- and 2-particle density matrices to ./Li2.mcpdm


     Multipole analysis of the density
     ---------------------------------

     L   x y z        total        nuclear
     -   - - -        -----        -------
     0   0 0 0     -0.000000      6.000000

     1   1 0 0     -0.000000      0.000000
     1   0 1 0     -0.000000      0.000000
     1   0 0 1      0.000000      0.000000

     2   2 0 0    -12.454074      0.000000
     2   1 1 0     -0.000000      0.000000
     2   1 0 1     -0.000000      0.000000
     2   0 2 0    -11.178732    184.815000
     2   0 1 1      0.000000      0.000000
     2   0 0 2    -12.454074      0.000000


  Mulliken analysis of the total density
  --------------------------------------

    Atom       Charge   Shell Charges
 -----------   ------   -------------------------------------------------------
    1 Li   3     3.00   1.99 -0.01  0.51  0.51  0.00 -0.00  0.00 -0.00 -0.00 -0.00
    2 Li   3     3.00   1.99 -0.01  0.51  0.51  0.00 -0.00  0.00 -0.00 -0.00 -0.00

    Mulliken analysis of the active space density
    ---------------------------------------------

    Atom       Charge   Shell Charges
 -----------   ------   -------------------------------------------------------
    1 Li   3     3.00   1.99 -0.01  0.51  0.51  0.00 -0.00  0.00 -0.00 -0.00 -0.00
    2 Li   3     3.00   1.99 -0.01  0.51  0.51  0.00 -0.00  0.00 -0.00 -0.00 -0.00

 Parallel integral file used      18 records with       0 large values


 Task  times  cpu:        1.0s     wall:        1.0s


                                NWChem Input Module
                                -------------------


                                 NWChem SCF Module
                                 -----------------


                                        Li2



  ao basis        = "ao basis"
  functions       =    70
  atoms           =     2
  closed shells   =     3
  open shells     =     0
  charge          =   0.00
  wavefunction    = RHF 
  input vectors   = ./Li2.mos
  output vectors  = ./Li2-11.1.mos
  use symmetry    = F
  symmetry adapt  = F


 Summary of "ao basis" -> "ao basis" (cartesian)
 ------------------------------------------------------------------------------
       Tag                 Description            Shells   Functions and Types
 ---------------- ------------------------------  ------  ---------------------
 Li                         cc-pVTZ                 10       35   4s3p2d1f



 Forming initial guess at       1.0s


 Loading old vectors from job with title :

Li2


 Starting SCF solution at       1.0s



 ----------------------------------------------
         Quadratically convergent ROHF

 Convergence threshold     :          1.000E-04
 Maximum no. of iterations :           30
 Final Fock-matrix accuracy:          1.000E-07
 ----------------------------------------------


 Integral file          = ./Li2.aoints.0
 Record size in doubles =  65536        No. of integs per rec  =  43688
 Max. records in memory =     99        Max. records in file   = 280118
 No. of bits per label  =      8        No. of bits per value  =     64


 #quartets = 2.086D+04 #integrals = 7.686D+05 #direct =  0.0% #cached =100.0%



       Final RHF  results 
       ------------------ 

         Total SCF energy =    -14.807824107117
      One-electron energy =    -21.040227710352
      Two-electron energy =      5.421592792425
 Nuclear repulsion energy =      0.810810810811

        Time for solution =      0.1s


             Final eigenvalues
             -----------------

              1      
    1   -2.4783
    2   -2.4783
    3   -0.1156
    4   -0.0802
    5    0.0268
    6    0.0268
    7    0.0313
    8    0.0410
    9    0.0410
   10    0.0477
   11    0.1016
   12    0.1129
   13    0.1182

                       ROHF Final Molecular Orbital Analysis
                       -------------------------------------

 Vector    2  Occ=2.000000D+00  E=-2.478334D+00
              MO Center=  6.4D-14, -6.0D-08,  1.8D-14, r^2= 8.8D+00
   Bfn.  Coefficient  Atom+Function         Bfn.  Coefficient  Atom+Function  
  ----- ------------  ---------------      ----- ------------  ---------------
     1      0.704539  1 Li s                 36     -0.704539  2 Li s          

 Vector    3  Occ=2.000000D+00  E=-1.155778D-01
              MO Center=  9.2D-13,  5.5D-12, -2.7D-12, r^2= 1.3D+01
   Bfn.  Coefficient  Atom+Function         Bfn.  Coefficient  Atom+Function  
  ----- ------------  ---------------      ----- ------------  ---------------
     3      0.377387  1 Li s                 38      0.377387  2 Li s          
     4      0.369995  1 Li s                 39      0.369995  2 Li s          
     2      0.184927  1 Li s                 37      0.184927  2 Li s          

 Vector    4  Occ=0.000000D+00  E=-8.022300D-02
              MO Center=  2.5D-12,  6.8D-12,  8.1D-13, r^2= 1.4D+01
   Bfn.  Coefficient  Atom+Function         Bfn.  Coefficient  Atom+Function  
  ----- ------------  ---------------      ----- ------------  ---------------
     3      0.435263  1 Li s                 38     -0.435263  2 Li s          
     4      0.378090  1 Li s                 39     -0.378090  2 Li s          
     2      0.202045  1 Li s                 37     -0.202045  2 Li s          

 Vector    5  Occ=0.000000D+00  E= 2.675643D-02
              MO Center= -3.7D-12, -3.1D-11,  3.7D-12, r^2= 2.4D+01
   Bfn.  Coefficient  Atom+Function         Bfn.  Coefficient  Atom+Function  
  ----- ------------  ---------------      ----- ------------  ---------------
    13     -0.477586  1 Li pz                48     -0.477586  2 Li pz         
    11      0.456852  1 Li px                46      0.456852  2 Li px         

 Vector    6  Occ=0.000000D+00  E= 2.675643D-02
              MO Center=  3.8D-13, -3.1D-11,  7.4D-13, r^2= 2.4D+01
   Bfn.  Coefficient  Atom+Function         Bfn.  Coefficient  Atom+Function  
  ----- ------------  ---------------      ----- ------------  ---------------
    11      0.477586  1 Li px                46      0.477586  2 Li px         
    13      0.456852  1 Li pz                48      0.456852  2 Li pz         

 Vector    7  Occ=0.000000D+00  E= 3.131112D-02
              MO Center= -2.5D-13, -7.6D-11,  1.2D-13, r^2= 2.7D+01
   Bfn.  Coefficient  Atom+Function         Bfn.  Coefficient  Atom+Function  
  ----- ------------  ---------------      ----- ------------  ---------------
    12      0.636892  1 Li py                47     -0.636892  2 Li py         
     4     -0.315479  1 Li s                 39     -0.315479  2 Li s          

 Vector    8  Occ=0.000000D+00  E= 4.103102D-02
              MO Center= -3.0D-13,  3.0D-11, -4.5D-13, r^2= 3.0D+01
   Bfn.  Coefficient  Atom+Function         Bfn.  Coefficient  Atom+Function  
  ----- ------------  ---------------      ----- ------------  ---------------
    13      0.897706  1 Li pz                48     -0.897706  2 Li pz         

 Vector    9  Occ=0.000000D+00  E= 4.103102D-02
              MO Center= -7.7D-12,  3.0D-11,  8.8D-14, r^2= 3.0D+01
   Bfn.  Coefficient  Atom+Function         Bfn.  Coefficient  Atom+Function  
  ----- ------------  ---------------      ----- ------------  ---------------
    11      0.897706  1 Li px                46     -0.897706  2 Li px         

 Vector   10  Occ=0.000000D+00  E= 4.772173D-02
              MO Center=  3.2D-12,  5.5D-11,  9.5D-13, r^2= 4.5D+01
   Bfn.  Coefficient  Atom+Function         Bfn.  Coefficient  Atom+Function  
  ----- ------------  ---------------      ----- ------------  ---------------
    12      1.348281  1 Li py                47      1.348281  2 Li py         
     4      0.532113  1 Li s                 39     -0.532113  2 Li s          
     9     -0.273695  1 Li py                44     -0.273695  2 Li py         

 Vector   11  Occ=0.000000D+00  E= 1.015523D-01
              MO Center= -3.4D-12, -1.7D-12,  1.0D-13, r^2= 2.7D+01
   Bfn.  Coefficient  Atom+Function         Bfn.  Coefficient  Atom+Function  
  ----- ------------  ---------------      ----- ------------  ---------------
     4      1.842008  1 Li s                 39      1.842008  2 Li s          
     3     -1.437014  1 Li s                 38     -1.437014  2 Li s          
    23     -0.416918  1 Li dyy               58     -0.416918  2 Li dyy        
    20     -0.332294  1 Li dxx               25     -0.332294  1 Li dzz        
    55     -0.332294  2 Li dxx               60     -0.332294  2 Li dzz        

 Vector   12  Occ=0.000000D+00  E= 1.128874D-01
              MO Center= -1.1D-12, -3.6D-11,  6.8D-13, r^2= 2.2D+01
   Bfn.  Coefficient  Atom+Function         Bfn.  Coefficient  Atom+Function  
  ----- ------------  ---------------      ----- ------------  ---------------
     9      1.299289  1 Li py                44     -1.299289  2 Li py         
    12     -0.933371  1 Li py                47      0.933371  2 Li py         
     3      0.355207  1 Li s                 38      0.355207  2 Li s          
     4     -0.313269  1 Li s                 39     -0.313269  2 Li s          
    23      0.270961  1 Li dyy               58      0.270961  2 Li dyy        

 Vector   13  Occ=0.000000D+00  E= 1.182194D-01
              MO Center=  1.2D-12, -8.6D-11, -3.7D-12, r^2= 2.2D+01
   Bfn.  Coefficient  Atom+Function         Bfn.  Coefficient  Atom+Function  
  ----- ------------  ---------------      ----- ------------  ---------------
    10      1.134063  1 Li pz                45      1.134063  2 Li pz         
    13     -0.706244  1 Li pz                48     -0.706244  2 Li pz         
     8     -0.481221  1 Li px                43     -0.481221  2 Li px         
    11      0.299683  1 Li px                46      0.299683  2 Li px         

 Vector   14  Occ=0.000000D+00  E= 1.182194D-01
              MO Center=  3.8D-12, -8.8D-11,  1.9D-12, r^2= 2.2D+01
   Bfn.  Coefficient  Atom+Function         Bfn.  Coefficient  Atom+Function  
  ----- ------------  ---------------      ----- ------------  ---------------
     8      1.134063  1 Li px                43      1.134063  2 Li px         
    11     -0.706244  1 Li px                46     -0.706244  2 Li px         
    10      0.481221  1 Li pz                45      0.481221  2 Li pz         
    13     -0.299683  1 Li pz                48     -0.299683  2 Li pz         

 Vector   15  Occ=0.000000D+00  E= 1.212168D-01
              MO Center= -3.9D-12,  3.5D-11,  4.5D-12, r^2= 2.4D+01
   Bfn.  Coefficient  Atom+Function         Bfn.  Coefficient  Atom+Function  
  ----- ------------  ---------------      ----- ------------  ---------------
     4      1.253862  1 Li s                 39     -1.253862  2 Li s          
     9      0.932793  1 Li py                44      0.932793  2 Li py         
     3     -0.881937  1 Li s                 38      0.881937  2 Li s          
    12     -0.377317  1 Li py                47     -0.377317  2 Li py         
    23     -0.307615  1 Li dyy               58      0.307615  2 Li dyy        

 Vector   16  Occ=0.000000D+00  E= 1.231337D-01
              MO Center=  4.8D-13,  8.4D-11, -3.9D-12, r^2= 2.4D+01
   Bfn.  Coefficient  Atom+Function         Bfn.  Coefficient  Atom+Function  
  ----- ------------  ---------------      ----- ------------  ---------------
    10      1.237182  1 Li pz                45     -1.237182  2 Li pz         
    13     -0.991572  1 Li pz                48      0.991572  2 Li pz         
     8     -0.271311  1 Li px                43      0.271311  2 Li px         
    11      0.217449  1 Li px                46     -0.217449  2 Li px         

 Vector   17  Occ=0.000000D+00  E= 1.231337D-01
              MO Center=  1.5D-12,  8.8D-11,  5.8D-13, r^2= 2.4D+01
   Bfn.  Coefficient  Atom+Function         Bfn.  Coefficient  Atom+Function  
  ----- ------------  ---------------      ----- ------------  ---------------
     8      1.237182  1 Li px                43     -1.237182  2 Li px         
    11     -0.991572  1 Li px                46      0.991572  2 Li px         
    10      0.271311  1 Li pz                45     -0.271311  2 Li pz         
    13     -0.217449  1 Li pz                48      0.217449  2 Li pz         

 Vector   18  Occ=0.000000D+00  E= 1.342561D-01
              MO Center=  1.3D-12,  6.5D-12, -1.5D-12, r^2= 2.5D+01
   Bfn.  Coefficient  Atom+Function         Bfn.  Coefficient  Atom+Function  
  ----- ------------  ---------------      ----- ------------  ---------------
     4      2.937253  1 Li s                 39     -2.937253  2 Li s          
     3     -1.685845  1 Li s                 38      1.685845  2 Li s          
    12      1.374709  1 Li py                47      1.374709  2 Li py         
     9     -0.737459  1 Li py                44     -0.737459  2 Li py         
    20     -0.410163  1 Li dxx               25     -0.410163  1 Li dzz        

 Vector   19  Occ=0.000000D+00  E= 2.101029D-01
              MO Center= -6.1D-14, -1.3D-11, -2.2D-13, r^2= 1.5D+01
   Bfn.  Coefficient  Atom+Function         Bfn.  Coefficient  Atom+Function  
  ----- ------------  ---------------      ----- ------------  ---------------
    24      1.365805  1 Li dyz               59     -1.365805  2 Li dyz        
    18     -0.294727  1 Li dyz               53      0.294727  2 Li dyz        
    21     -0.222783  1 Li dxy               56      0.222783  2 Li dxy        

 Vector   20  Occ=0.000000D+00  E= 2.101029D-01
              MO Center=  3.4D-13, -1.3D-11,  1.1D-13, r^2= 1.5D+01
   Bfn.  Coefficient  Atom+Function         Bfn.  Coefficient  Atom+Function  
  ----- ------------  ---------------      ----- ------------  ---------------
    21      1.365805  1 Li dxy               56     -1.365805  2 Li dxy        
    15     -0.294727  1 Li dxy               50      0.294727  2 Li dxy        
    24      0.222783  1 Li dyz               59     -0.222783  2 Li dyz        

 Vector   21  Occ=0.000000D+00  E= 2.179128D-01
              MO Center=  1.2D-13, -4.3D-12, -2.9D-14, r^2= 1.6D+01
   Bfn.  Coefficient  Atom+Function         Bfn.  Coefficient  Atom+Function  
  ----- ------------  ---------------      ----- ------------  ---------------
    23      0.753622  1 Li dyy               58      0.753622  2 Li dyy        
     9     -0.333675  1 Li py                44      0.333675  2 Li py         
    20     -0.331426  1 Li dxx               25     -0.331426  1 Li dzz        
    55     -0.331426  2 Li dxx               60     -0.331426  2 Li dzz        
    12      0.250925  1 Li py                47     -0.250925  2 Li py         

 Vector   22  Occ=0.000000D+00  E= 2.250985D-01
              MO Center=  4.9D-13, -7.2D-11, -1.3D-13, r^2= 1.5D+01
   Bfn.  Coefficient  Atom+Function         Bfn.  Coefficient  Atom+Function  
  ----- ------------  ---------------      ----- ------------  ---------------
    22      1.415577  1 Li dxz               57      1.415577  2 Li dxz        
    16     -0.288533  1 Li dxz               51     -0.288533  2 Li dxz        

 Vector   23  Occ=0.000000D+00  E= 2.250985D-01
              MO Center=  5.0D-13, -7.2D-11, -1.3D-13, r^2= 1.5D+01
   Bfn.  Coefficient  Atom+Function         Bfn.  Coefficient  Atom+Function  
  ----- ------------  ---------------      ----- ------------  ---------------
    20      0.707789  1 Li dxx               25     -0.707789  1 Li dzz        
    55      0.707789  2 Li dxx               60     -0.707789  2 Li dzz        

 Vector   24  Occ=0.000000D+00  E= 2.315805D-01
              MO Center=  4.8D-13,  7.2D-11, -1.5D-13, r^2= 1.6D+01
   Bfn.  Coefficient  Atom+Function         Bfn.  Coefficient  Atom+Function  
  ----- ------------  ---------------      ----- ------------  ---------------
    22      1.420518  1 Li dxz               57     -1.420518  2 Li dxz        
    16     -0.278156  1 Li dxz               51      0.278156  2 Li dxz        

 Vector   25  Occ=0.000000D+00  E= 2.315805D-01
              MO Center=  4.8D-13,  7.2D-11, -1.5D-13, r^2= 1.6D+01
   Bfn.  Coefficient  Atom+Function         Bfn.  Coefficient  Atom+Function  
  ----- ------------  ---------------      ----- ------------  ---------------
    20      0.710259  1 Li dxx               25     -0.710259  1 Li dzz        
    55     -0.710259  2 Li dxx               60      0.710259  2 Li dzz        

 Vector   26  Occ=0.000000D+00  E= 2.553227D-01
              MO Center= -7.2D-14,  1.4D-11, -2.4D-13, r^2= 1.6D+01
   Bfn.  Coefficient  Atom+Function         Bfn.  Coefficient  Atom+Function  
  ----- ------------  ---------------      ----- ------------  ---------------
    24      1.448996  1 Li dyz               59      1.448996  2 Li dyz        
    18     -0.249344  1 Li dyz               53     -0.249344  2 Li dyz        
    21     -0.209947  1 Li dxy               56     -0.209947  2 Li dxy        
    13      0.208569  1 Li pz                48     -0.208569  2 Li pz         

 Vector   27  Occ=0.000000D+00  E= 2.553227D-01
              MO Center=  4.3D-13,  1.4D-11,  1.1D-13, r^2= 1.6D+01
   Bfn.  Coefficient  Atom+Function         Bfn.  Coefficient  Atom+Function  
  ----- ------------  ---------------      ----- ------------  ---------------
    21      1.448996  1 Li dxy               56      1.448996  2 Li dxy        
    15     -0.249344  1 Li dxy               50     -0.249344  2 Li dxy        
    24      0.209947  1 Li dyz               59      0.209947  2 Li dyz        
    11      0.208569  1 Li px                46     -0.208569  2 Li px         

 Vector   28  Occ=0.000000D+00  E= 2.999950D-01
              MO Center= -8.3D-14,  8.4D-13,  2.7D-14, r^2= 2.0D+01
   Bfn.  Coefficient  Atom+Function         Bfn.  Coefficient  Atom+Function  
  ----- ------------  ---------------      ----- ------------  ---------------
     4      1.344753  1 Li s                 39     -1.344753  2 Li s          
    12      0.821104  1 Li py                47      0.821104  2 Li py         
    23      0.746369  1 Li dyy               58     -0.746369  2 Li dyy        
     3     -0.685798  1 Li s                 38      0.685798  2 Li s          
    20     -0.567215  1 Li dxx               25     -0.567215  1 Li dzz        

 Vector   29  Occ=0.000000D+00  E= 3.610359D-01
              MO Center= -2.8D-12, -4.7D-11,  6.8D-12, r^2= 1.6D+01
   Bfn.  Coefficient  Atom+Function         Bfn.  Coefficient  Atom+Function  
  ----- ------------  ---------------      ----- ------------  ---------------
    10      1.410370  1 Li pz                45      1.410370  2 Li pz         
     7     -0.595570  1 Li pz                42     -0.595570  2 Li pz         
     8     -0.534675  1 Li px                43     -0.534675  2 Li px         
    28     -0.495315  1 Li fxxz              35     -0.495315  1 Li fzzz       
    63     -0.495315  2 Li fxxz              70     -0.495315  2 Li fzzz       

 Vector   30  Occ=0.000000D+00  E= 3.610359D-01
              MO Center= -5.6D-12, -4.8D-11, -2.0D-12, r^2= 1.6D+01
   Bfn.  Coefficient  Atom+Function         Bfn.  Coefficient  Atom+Function  
  ----- ------------  ---------------      ----- ------------  ---------------
     8      1.410370  1 Li px                43      1.410370  2 Li px         
     5     -0.595570  1 Li px                40     -0.595570  2 Li px         
    10      0.534675  1 Li pz                45      0.534675  2 Li pz         
    26     -0.495315  1 Li fxxx              31     -0.495315  1 Li fxzz       
    61     -0.495315  2 Li fxxx              66     -0.495315  2 Li fxzz       

 Vector   31  Occ=0.000000D+00  E= 3.625406D-01
              MO Center=  3.6D-12, -9.9D-12, -3.0D-12, r^2= 1.5D+01
   Bfn.  Coefficient  Atom+Function         Bfn.  Coefficient  Atom+Function  
  ----- ------------  ---------------      ----- ------------  ---------------
     9      1.457202  1 Li py                44     -1.457202  2 Li py         
     6     -0.627658  1 Li py                41      0.627658  2 Li py         
    12     -0.552341  1 Li py                47      0.552341  2 Li py         
    27     -0.517304  1 Li fxxy              34     -0.517304  1 Li fyzz       
    62      0.517304  2 Li fxxy              69      0.517304  2 Li fyzz       

 Vector   32  Occ=0.000000D+00  E= 3.722230D-01
              MO Center= -1.1D-12,  4.6D-11,  2.4D-12, r^2= 1.7D+01
   Bfn.  Coefficient  Atom+Function         Bfn.  Coefficient  Atom+Function  
  ----- ------------  ---------------      ----- ------------  ---------------
    10      1.497836  1 Li pz                45     -1.497836  2 Li pz         
     7     -0.614058  1 Li pz                42      0.614058  2 Li pz         
    13     -0.608057  1 Li pz                48      0.608057  2 Li pz         
     8     -0.553122  1 Li px                43      0.553122  2 Li px         
    33     -0.518819  1 Li fyyz              68      0.518819  2 Li fyyz       

 Vector   33  Occ=0.000000D+00  E= 3.722230D-01
              MO Center= -2.1D-12,  4.7D-11, -6.5D-13, r^2= 1.7D+01
   Bfn.  Coefficient  Atom+Function         Bfn.  Coefficient  Atom+Function  
  ----- ------------  ---------------      ----- ------------  ---------------
     8      1.497836  1 Li px                43     -1.497836  2 Li px         
     5     -0.614058  1 Li px                40      0.614058  2 Li px         
    11     -0.608057  1 Li px                46      0.608057  2 Li px         
    10      0.553122  1 Li pz                45     -0.553122  2 Li pz         
    29     -0.518819  1 Li fxyy              64      0.518819  2 Li fxyy       

 Vector   34  Occ=0.000000D+00  E= 3.936114D-01
              MO Center=  1.7D-12, -1.8D-10, -1.0D-12, r^2= 2.0D+01
   Bfn.  Coefficient  Atom+Function         Bfn.  Coefficient  Atom+Function  
  ----- ------------  ---------------      ----- ------------  ---------------
     4      1.410236  1 Li s                 39     -1.410236  2 Li s          
     9      1.359138  1 Li py                44      1.359138  2 Li py         
    20     -0.738188  1 Li dxx               25     -0.738188  1 Li dzz        
    55      0.738188  2 Li dxx               60      0.738188  2 Li dzz        
     6     -0.533408  1 Li py                41     -0.533408  2 Li py         

 Vector   35  Occ=0.000000D+00  E= 3.983220D-01
              MO Center=  4.0D-12,  2.0D-10, -1.7D-12, r^2= 1.9D+01
   Bfn.  Coefficient  Atom+Function         Bfn.  Coefficient  Atom+Function  
  ----- ------------  ---------------      ----- ------------  ---------------
     4      1.449725  1 Li s                 39      1.449725  2 Li s          
    20     -0.927733  1 Li dxx               25     -0.927733  1 Li dzz        
    55     -0.927733  2 Li dxx               60     -0.927733  2 Li dzz        
    23     -0.848057  1 Li dyy               58     -0.848057  2 Li dyy        
    17      0.349702  1 Li dyy               52      0.349702  2 Li dyy        

 Vector   36  Occ=0.000000D+00  E= 4.441197D-01
              MO Center=  1.3D-12,  2.6D-12, -8.1D-13, r^2= 1.1D+01
   Bfn.  Coefficient  Atom+Function         Bfn.  Coefficient  Atom+Function  
  ----- ------------  ---------------      ----- ------------  ---------------
     4      2.001478  1 Li s                 39     -2.001478  2 Li s          
    23     -1.004317  1 Li dyy               58      1.004317  2 Li dyy        
     9     -0.989606  1 Li py                44     -0.989606  2 Li py         
    20     -0.862156  1 Li dxx               25     -0.862156  1 Li dzz        
    55      0.862156  2 Li dxx               60      0.862156  2 Li dzz        

 Vector   37  Occ=0.000000D+00  E= 7.138584D-01
              MO Center= -8.6D-13, -1.8D-11,  2.2D-13, r^2= 1.3D+01
   Bfn.  Coefficient  Atom+Function         Bfn.  Coefficient  Atom+Function  
  ----- ------------  ---------------      ----- ------------  ---------------
    18      1.661647  1 Li dyz               53     -1.661647  2 Li dyz        
    24     -0.967971  1 Li dyz               59      0.967971  2 Li dyz        
    33     -0.492595  1 Li fyyz              68     -0.492595  2 Li fyyz       


 center of mass
 --------------
 x =   0.00000000 y =   0.00000000 z =   0.00000000

 moments of inertia (a.u.)
 ------------------
         432.220680000000           0.000000000000           0.000000000000
           0.000000000000           0.000000000000           0.000000000000
           0.000000000000           0.000000000000         432.220680000000

  Mulliken analysis of the total density
  --------------------------------------

    Atom       Charge   Shell Charges
 -----------   ------   -------------------------------------------------------
    1 Li   3     3.00   1.99 -0.01  0.48  0.54  0.00  0.00  0.00  0.00 -0.01 -0.00
    2 Li   3     3.00   1.99 -0.01  0.48  0.54  0.00  0.00  0.00  0.00 -0.01 -0.00

       Multipole analysis of the density wrt the origin
       ------------------------------------------------

     L   x y z        total         open         nuclear
     -   - - -        -----         ----         -------
     0   0 0 0     -0.000000      0.000000      6.000000

     1   1 0 0     -0.000000      0.000000      0.000000
     1   0 1 0     -0.000000      0.000000      0.000000
     1   0 0 1      0.000000      0.000000      0.000000

     2   2 0 0    -12.740380      0.000000      0.000000
     2   1 1 0     -0.000000      0.000000      0.000000
     2   1 0 1      0.000000      0.000000      0.000000
     2   0 2 0     -7.568764      0.000000    184.815000
     2   0 1 1      0.000000      0.000000      0.000000
     2   0 0 2    -12.740380      0.000000      0.000000


 Parallel integral file used      18 records with       0 large values

                   NWChem Extensible Many-Electron Theory Module
                   ---------------------------------------------

              ======================================================
                   This portion of the program was automatically
                  generated by a Tensor Contraction Engine (TCE).
                  The development of this portion of the program
                 and TCE was supported by US Department of Energy,
                Office of Science, Office of Basic Energy Science.
                      TCE is a product of Battelle and PNNL.
              Please cite: S.Hirata, J.Phys.Chem.A 107, 9887 (2003).
              ======================================================

                                        Li2


            General Information
            -------------------
      Number of processors :     1
         Wavefunction type : Restricted Hartree-Fock
          No. of electrons :     6
           Alpha electrons :     3
            Beta electrons :     3
           No. of orbitals :   140
            Alpha orbitals :    70
             Beta orbitals :    70
        Alpha frozen cores :     0
         Beta frozen cores :     0
     Alpha frozen virtuals :     0
      Beta frozen virtuals :     0
         Spin multiplicity : singlet 
    Number of AO functions :    70
       Number of AO shells :    20
        Use of symmetry is : off
      Symmetry adaption is : off
         Schwarz screening : 0.10D-09

          Correlation Information
          -----------------------
          Calculation type : Coupled-cluster singles & doubles                           
   Perturbative correction : none                                                        
            Max iterations :      300
        Residual threshold : 0.10D-06
     T(0) DIIS level shift : 0.00D+00
     L(0) DIIS level shift : 0.00D+00
     T(1) DIIS level shift : 0.00D+00
     L(1) DIIS level shift : 0.00D+00
     T(R) DIIS level shift : 0.00D+00
     T(I) DIIS level shift : 0.00D+00
   CC-T/L Amplitude update :  5-th order DIIS
                I/O scheme : Global Array Library
        L-threshold :  0.10D-06
        EOM-threshold :  0.10D-06
 no EOMCCSD initial starts read in
 TCE RESTART OPTIONS
 READ_INT:   F
 WRITE_INT:  F
 READ_TA:    F
 WRITE_TA:   F
 READ_XA:    F
 WRITE_XA:   F
 READ_IN3:   F
 WRITE_IN3:  F
 SLICE:      F
 D4D5:       F
 quantumc:   F
 qrotation:  F
 pwtce:      F
 qducc:      T
 nacto:                         0
 nrotv:                         0
 nrot:                          0

            Memory Information
            ------------------
          Available GA space size is    1610607836 doubles
          Available MA space size is    1610609956 doubles

 Maximum block size        32 doubles

 tile_dim =     23

 Block   Spin    Irrep     Size     Offset   Alpha
 -------------------------------------------------
   1    alpha     a      3 doubles       0       1
   2    beta      a      3 doubles       3       1
   3    alpha     a     22 doubles       6       3
   4    alpha     a     22 doubles      28       4
   5    alpha     a     23 doubles      50       5
   6    beta      a     22 doubles      73       3
   7    beta      a     22 doubles      95       4
   8    beta      a     23 doubles     117       5

 Global array virtual files algorithm will be used

 Parallel file system coherency ......... OK

 Integral file          = ./Li2.aoints.0
 Record size in doubles =  65536        No. of integs per rec  =  43688
 Max. records in memory =     99        Max. records in file   = 280118
 No. of bits per label  =      8        No. of bits per value  =     64


 #quartets = 2.122D+04 #integrals = 8.240D+05 #direct =  0.0% #cached =100.0%


 Fock matrix recomputed
 1-e file size   =             4900
 1-e file name   = ./Li2.f1
 Cpu & wall time / sec            0.1            0.1
 4-electron integrals stored in orbital form

 v2    file size   =          5883722
 4-index algorithm nr.  13 is used
 imaxsize =       30
 imaxsize ichop =        0
 Cpu & wall time / sec            2.4            2.4
 T1-number-of-tasks                    3

 t1 file size   =              201
 t1 file name   = ./Li2.t1
 t1 file handle =       -998
 T2-number-of-boxes                   15

 t2 file size   =            67338
 t2 file name   = ./Li2.t2
 t2 file handle =       -996
CCSD iterations
 ---------------------------------------------------------
 Iter          Residuum       Correlation     Cpu    Wall 
 ---------------------------------------------------------
NEW TASK SCHEDULING
CCSD_T1_NTS --- OK
CCSD_T2_NTS --- OK
    1   0.1753349420218  -0.1158158922240     0.2     0.2
    2   0.1646548474368  -0.0315354539339     0.2     0.2
    3   0.2225002546317  -0.1406591084345     0.2     0.2
    4   0.2700672065590   0.0198028761220     0.2     0.2
    5   0.2367629831538  -0.1135547760352     0.2     0.2
 MICROCYCLE DIIS UPDATE:                    5                    5
    6   0.0484877086585  -0.0633054910312     0.2     0.2
    7   0.0942445488896  -0.1144542218303     0.2     0.2
    8   0.1313643490719  -0.0453479151296     0.2     0.2
    9   0.1903310402970  -0.1364935368702     0.2     0.2
   10   0.2452190393264   0.0072221206376     0.2     0.2
 MICROCYCLE DIIS UPDATE:                   10                    5
   11   0.0178182310429  -0.0819196046375     0.2     0.2
   12   0.0353690035417  -0.1008678197145     0.2     0.2
   13   0.0543072151850  -0.0735753020522     0.2     0.2
   14   0.0860936561964  -0.1145145922288     0.2     0.2
   15   0.1278031206123  -0.0466777782623     0.2     0.2
 MICROCYCLE DIIS UPDATE:                   15                    5
   16   0.0089784573269  -0.0865991777398     0.2     0.2
   17   0.0177402881121  -0.0961259770306     0.2     0.2
   18   0.0279352831270  -0.0822852914943     0.2     0.2
   19   0.0446072634839  -0.1037383058530     0.2     0.2
   20   0.0689630168218  -0.0687024790390     0.2     0.2
 MICROCYCLE DIIS UPDATE:                   20                    5
   21   0.0032843728065  -0.0894377572886     0.2     0.2
   22   0.0064690657341  -0.0929156395207     0.2     0.2
   23   0.0103419218380  -0.0878376950209     0.2     0.2
   24   0.0164977871038  -0.0958580573202     0.2     0.2
   25   0.0260191789892  -0.0829824851830     0.2     0.2
 MICROCYCLE DIIS UPDATE:                   25                    5
   26   0.0005378620841  -0.0907562205609     0.2     0.2
   27   0.0010412267790  -0.0913162808087     0.2     0.2
   28   0.0016798128990  -0.0904960735834     0.2     0.2
   29   0.0026712442069  -0.0918028668773     0.2     0.2
   30   0.0042455245165  -0.0897270443887     0.2     0.2
 MICROCYCLE DIIS UPDATE:                   30                    5
   31   0.0000308771908  -0.0910018555147     0.2     0.2
   32   0.0000429422821  -0.0910098701126     0.2     0.2
   33   0.0001393524907  -0.0909979015943     0.2     0.2
   34   0.0004900338624  -0.0910167781351     0.2     0.2
   35   0.0017443672810  -0.0909848208199     0.2     0.2
 MICROCYCLE DIIS UPDATE:                   35                    5
   36   0.0000022618770  -0.0910051821900     0.2     0.2
   37   0.0000014493315  -0.0910057296080     0.2     0.2
   38   0.0000015395389  -0.0910050400922     0.2     0.2
   39   0.0000025218501  -0.0910061230569     0.2     0.2
   40   0.0000055959637  -0.0910044181176     0.2     0.2
 MICROCYCLE DIIS UPDATE:                   40                    5
   41   0.0000003027888  -0.0910054850961     0.2     0.2
   42   0.0000002259900  -0.0910054406164     0.2     0.2
   43   0.0000004425424  -0.0910055059686     0.2     0.2
   44   0.0000014974733  -0.0910053990700     0.2     0.2
   45   0.0000052899404  -0.0910055703206     0.2     0.2
 MICROCYCLE DIIS UPDATE:                   45                    5
   46   0.0000000332914  -0.0910054612204     0.2     0.2
 -----------------------------------------------------------------
 Iterations converged
 CCSD correlation energy / hartree =        -0.091005461220390
 CCSD total energy / hartree       =       -14.898829568337202

 Singles contributions

 Doubles contributions
     4a   (alpha)     4a   (beta ) ---     3a   (alpha)     3a   (beta )       -0.7330342006
     5a   (alpha)     5a   (beta ) ---     3a   (alpha)     3a   (beta )       -0.0338069769
     6a   (alpha)     6a   (beta ) ---     3a   (alpha)     3a   (beta )       -0.0338069769
     7a   (alpha)     7a   (beta ) ---     3a   (alpha)     3a   (beta )       -0.0502879729
     7a   (alpha)    12a   (beta ) ---     3a   (alpha)     3a   (beta )       -0.0334088751
    12a   (alpha)     7a   (beta ) ---     3a   (alpha)     3a   (beta )       -0.0334088751
    12a   (alpha)    12a   (beta ) ---     3a   (alpha)     3a   (beta )       -0.0255708553
 Ground state specification:
 exp(T)|Ref>~(1+T)|Ref>
 ------- a(p)+/a(q) strings ----------

 singles norm

 doubles norm

 Reference string
  0.80652003068847722      :(1a)+ (2a)+ (3a)+ (1b)+ (2b)+ (3b)+ |0>

 Singles strings

 Doubles strings
 -0.59120676594424870      :(4a)+ (4b)+ (3b)  (3a)  (1a)+ (2a)+ (3a)+ (1b)+ (2b)+ (3b)+ |0>
 -------------------------------------
 enrep_tce =   0.81081081081081074     
  EHF(total)         =       -14.80782411
  Shift (HFtot-HFA)  =         0.00000000
 ALL OCCUPIED ORBITALS ARE ACTIVE IN DUCC --> NO SHIFT
 Number of active orbitals                    4
 Number of active alpha electrons                    3
 Number of active beta electrons                    3
  nos                     6
  nvs                   134
 noas                     3
 nobs                     3
 nvas                    67
 nvbs                    67
 nactv                     1
 DUCC MODEL =                     3
 NONHF =  T
 F-T1 correlation    =   -7.9879787564352770E-004
 V-T1-T1 correlation =    1.0662870508914199E-005
 V-T2 correlation    =   -9.0217326215217344E-002
 Total correlation   =   -9.1005461220351955E-002
 F-T1(Ext) correlation         =   -8.0294277357474317E-004
 V-T1(Ext)-T1(Ext) correlation =    1.0272350583070754E-005
 V-T2(Ext) correlation         =   -3.7100498675333778E-002
 Total Ext correlation         =   -3.7893169098325449E-002
1-BODY TIME =    0.297 SECONDS.
  HHHH TIME =    0.941 SECONDS.
  PPPP TIME =    0.000 SECONDS.
  HHHP TIME =    0.150 SECONDS.
  PPPH TIME =    0.196 SECONDS.
  HPHP TIME =    0.033 SECONDS.
  HHPP TIME =    0.034 SECONDS.
 ONE-BODY UNITARY CHECK
 TWO-BODY UNITARY CHECK
 TWO-BODY ANTISYMMETRY CHECK
 TRANSFORMED ~FOCK~ MATRIX
    1    1        -2.4992779022
    1    3         0.0030350598
    2    2        -2.4992821204
    2    4        -0.0028587280
    3    1         0.0030350598
    3    3        -0.1376372678
    4    2        -0.0028587280
    4    4        -0.0259732111
 begin_one_electron_integrals
    1    1        -4.7118453835
    1    3         0.1205154121
    1    4        -0.0000000013
    2    2        -4.7119932697
    2    3         0.0000000012
    2    4         0.1289660802
    3    1         0.1205154121
    3    2         0.0000000012
    3    3        -1.0911970948
    4    1        -0.0000000013
    4    2         0.1289660802
    4    4        -1.1045573824
 end_one_electron_integrals
 begin_two_electron_integrals
    1    1    1    1        0.8621532259
    1    1    1    2       -0.0000000157
    1    1    1    3       -0.0580483612
    1    1    1    4        0.0000000020
    1    2    1    1       -0.0000000157
    1    2    1    2        0.7721403682
    1    2    1    3        0.0000000006
    1    2    1    4       -0.0647727905
    1    3    1    1       -0.0580483612
    1    3    1    2        0.0000000006
    1    3    1    3        0.0057774187
    1    3    1    4       -0.0000000002
    1    4    1    1        0.0000000020
    1    4    1    2       -0.0647727905
    1    4    1    3       -0.0000000002
    1    4    1    4        0.0098661582
    1    1    2    1       -0.0000000157
    1    1    2    2        0.8622212844
    1    1    2    3        0.0000000006
    1    1    2    4       -0.0648204318
    1    2    2    1        0.7721375475
    1    2    2    2        0.0000000157
    1    2    2    3       -0.0581354107
    1    2    2    4       -0.0000000007
    1    3    2    1        0.0000000006
    1    3    2    2       -0.0580549225
    1    3    2    4        0.0077230709
    1    4    2    1       -0.0647748150
    1    4    2    2       -0.0000000007
    1    4    2    3        0.0077232338
    1    1    3    1       -0.0580483612
    1    1    3    2        0.0000000006
    1    1    3    3        0.2021997208
    1    1    3    4       -0.0000000024
    1    2    3    1        0.0000000006
    1    2    3    2       -0.0581363842
    1    2    3    4        0.1160485887
    1    3    3    1        0.0062902075
    1    3    3    3       -0.0014575569
    1    4    3    1       -0.0000000002
    1    4    3    2        0.0081095074
    1    4    3    4       -0.0025463272
    1    1    4    1        0.0000000020
    1    1    4    2       -0.0648204318
    1    1    4    3       -0.0000000024
    1    1    4    4        0.2104743228
    1    2    4    1       -0.0647748150
    1    2    4    2       -0.0000000007
    1    2    4    3        0.1160488340
    1    3    4    1       -0.0000000002
    1    3    4    2        0.0081099255
    1    3    4    4       -0.0015271461
    1    4    4    1        0.0077018154
    1    4    4    3       -0.0013895472
    2    1    1    1       -0.0000000157
    2    1    1    2        0.7721375475
    2    1    1    3        0.0000000006
    2    1    1    4       -0.0647748150
    2    2    1    1        0.8622212844
    2    2    1    2        0.0000000157
    2    2    1    3       -0.0580549225
    2    2    1    4       -0.0000000007
    2    3    1    1        0.0000000006
    2    3    1    2       -0.0581354107
    2    3    1    4        0.0077232338
    2    4    1    1       -0.0648204318
    2    4    1    2       -0.0000000007
    2    4    1    3        0.0077230709
    2    1    2    1        0.7721403682
    2    1    2    2        0.0000000157
    2    1    2    3       -0.0581363842
    2    1    2    4       -0.0000000007
    2    2    2    1        0.0000000157
    2    2    2    2        0.8622949939
    2    2    2    3       -0.0000000018
    2    2    2    4       -0.0648285719
    2    3    2    1       -0.0581363842
    2    3    2    2       -0.0000000018
    2    3    2    3        0.0057799974
    2    3    2    4        0.0000000002
    2    4    2    1       -0.0000000007
    2    4    2    2       -0.0648285719
    2    4    2    3        0.0000000002
    2    4    2    4        0.0098679980
    2    1    3    1        0.0000000006
    2    1    3    2       -0.0581354107
    2    1    3    4        0.1160488340
    2    2    3    1       -0.0580549225
    2    2    3    2       -0.0000000018
    2    2    3    3        0.2022015883
    2    2    3    4        0.0000000024
    2    3    3    2        0.0062920426
    2    3    3    4       -0.0019089898
    2    4    3    1        0.0081099255
    2    4    3    2        0.0000000002
    2    4    3    3       -0.0020195888
    2    1    4    1       -0.0647727905
    2    1    4    2       -0.0000000007
    2    1    4    3        0.1160485887
    2    2    4    1       -0.0000000007
    2    2    4    2       -0.0648285719
    2    2    4    3        0.0000000024
    2    2    4    4        0.2104762503
    2    3    4    1        0.0081095074
    2    3    4    2        0.0000000002
    2    3    4    3       -0.0018146927
    2    4    4    2        0.0077038331
    2    4    4    4       -0.0016578556
    3    1    1    1       -0.0580483612
    3    1    1    2        0.0000000006
    3    1    1    3        0.0062902075
    3    1    1    4       -0.0000000002
    3    2    1    1        0.0000000006
    3    2    1    2       -0.0581363842
    3    2    1    4        0.0081095074
    3    3    1    1        0.2021997208
    3    3    1    3       -0.0014575569
    3    4    1    1       -0.0000000024
    3    4    1    2        0.1160485887
    3    4    1    4       -0.0025463272
    3    1    2    1        0.0000000006
    3    1    2    2       -0.0580549225
    3    1    2    4        0.0081099255
    3    2    2    1       -0.0581354107
    3    2    2    2       -0.0000000018
    3    2    2    3        0.0062920426
    3    2    2    4        0.0000000002
    3    3    2    2        0.2022015883
    3    3    2    4       -0.0020195888
    3    4    2    1        0.1160488340
    3    4    2    2        0.0000000024
    3    4    2    3       -0.0019089898
    3    1    3    1        0.0057774187
    3    1    3    3       -0.0014575569
    3    2    3    2        0.0057799974
    3    2    3    4       -0.0018146927
    3    3    3    1       -0.0014575569
    3    3    3    3        0.1573394588
    3    4    3    2       -0.0018146927
    3    4    3    4        0.0688841009
    3    1    4    1       -0.0000000002
    3    1    4    2        0.0077230709
    3    1    4    4       -0.0015271461
    3    2    4    1        0.0077232338
    3    2    4    2        0.0000000002
    3    2    4    3       -0.0019089898
    3    3    4    2       -0.0020195888
    3    3    4    4        0.1617599981
    3    4    4    1       -0.0013895472
    3    4    4    3        0.0714313226
    4    1    1    1        0.0000000020
    4    1    1    2       -0.0647748150
    4    1    1    3       -0.0000000002
    4    1    1    4        0.0077018154
    4    2    1    1       -0.0648204318
    4    2    1    2       -0.0000000007
    4    2    1    3        0.0081099255
    4    3    1    1       -0.0000000024
    4    3    1    2        0.1160488340
    4    3    1    4       -0.0013895472
    4    4    1    1        0.2104743228
    4    4    1    3       -0.0015271461
    4    1    2    1       -0.0647727905
    4    1    2    2       -0.0000000007
    4    1    2    3        0.0081095074
    4    2    2    1       -0.0000000007
    4    2    2    2       -0.0648285719
    4    2    2    3        0.0000000002
    4    2    2    4        0.0077038331
    4    3    2    1        0.1160485887
    4    3    2    2        0.0000000024
    4    3    2    3       -0.0018146927
    4    4    2    2        0.2104762503
    4    4    2    4       -0.0016578556
    4    1    3    1       -0.0000000002
    4    1    3    2        0.0077232338
    4    1    3    4       -0.0013895472
    4    2    3    1        0.0077230709
    4    2    3    2        0.0000000002
    4    2    3    3       -0.0020195888
    4    3    3    2       -0.0019089898
    4    3    3    4        0.0714313226
    4    4    3    1       -0.0015271461
    4    4    3    3        0.1617599981
    4    1    4    1        0.0098661582
    4    1    4    3       -0.0025463272
    4    2    4    2        0.0098679980
    4    2    4    4       -0.0016578556
    4    3    4    1       -0.0025463272
    4    3    4    3        0.0688841009
    4    4    4    2       -0.0016578556
    4    4    4    4        0.1639722598
 end_two_electron_integrals

 Parallel integral file used      19 records with       0 large values


 Task  times  cpu:       41.4s     wall:       44.5s


                                NWChem Input Module
                                -------------------


 Summary of allocated global arrays
-----------------------------------
  No active global arrays


MA_summarize_allocated_blocks: starting scan ...
MA_summarize_allocated_blocks: scan completed: 0 heap blocks, 0 stack blocks
MA usage statistics:

	allocation statistics:
					      heap	     stack
					      ----	     -----
	current number of blocks	         0	         0
	maximum number of blocks	        18	        42
	current total bytes		         0	         0
	maximum total bytes		  51988456	9998573272
	maximum total K-bytes		     51989	   9998574
	maximum total M-bytes		        52	      9999


                                     CITATION
                                     --------
                Please cite the following reference when publishing
                           results obtained with NWChem:

          E. Apra, E. J. Bylaska, W. A. de Jong, N. Govind, K. Kowalski,
       T. P. Straatsma, M. Valiev, H. J. J. van Dam, Y. Alexeev, J. Anchell,
       V. Anisimov, F. W. Aquino, R. Atta-Fynn, J. Autschbach, N. P. Bauman,
     J. C. Becca, D. E. Bernholdt, K. Bhaskaran-Nair, S. Bogatko, P. Borowski,
         J. Boschen, J. Brabec, A. Bruner, E. Cauet, Y. Chen, G. N. Chuev,
      C. J. Cramer, J. Daily, M. J. O. Deegan, T. H. Dunning Jr., M. Dupuis,
   K. G. Dyall, G. I. Fann, S. A. Fischer, A. Fonari, H. Fruchtl, L. Gagliardi,
      J. Garza, N. Gawande, S. Ghosh, K. Glaesemann, A. W. Gotz, J. Hammond,
       V. Helms, E. D. Hermes, K. Hirao, S. Hirata, M. Jacquelin, L. Jensen,
   B. G. Johnson, H. Jonsson, R. A. Kendall, M. Klemm, R. Kobayashi, V. Konkov,
      S. Krishnamoorthy, M. Krishnan, Z. Lin, R. D. Lins, R. J. Littlefield,
      A. J. Logsdail, K. Lopata, W. Ma, A. V. Marenich, J. Martin del Campo,
   D. Mejia-Rodriguez, J. E. Moore, J. M. Mullin, T. Nakajima, D. R. Nascimento,
    J. A. Nichols, P. J. Nichols, J. Nieplocha, A. Otero-de-la-Roza, B. Palmer,
    A. Panyala, T. Pirojsirikul, B. Peng, R. Peverati, J. Pittner, L. Pollack,
   R. M. Richard, P. Sadayappan, G. C. Schatz, W. A. Shelton, D. W. Silverstein,
   D. M. A. Smith, T. A. Soares, D. Song, M. Swart, H. L. Taylor, G. S. Thomas,
            V. Tipparaju, D. G. Truhlar, K. Tsemekhman, T. Van Voorhis,
      A. Vazquez-Mayagoitia, P. Verma, O. Villa, A. Vishnu, K. D. Vogiatzis,
        D. Wang, J. H. Weare, M. J. Williamson, T. L. Windus, K. Wolinski,
        A. T. Wong, Q. Wu, C. Yang, Q. Yu, M. Zacharias, Z. Zhang, Y. Zhao,
                                and R. J. Harrison
                        "NWChem: Past, present, and future
                         J. Chem. Phys. 152, 184102 (2020)
                               doi:10.1063/5.0004997

                                      AUTHORS
                                      -------
  E. Apra, E. J. Bylaska, N. Govind, K. Kowalski, M. Valiev, D. Mejia-Rodriguez,
       A. Kunitsa, N. P. Bauman, A. Panyala, W. A. de Jong, T. P. Straatsma,
        H. J. J. van Dam, D. Wang, T. L. Windus, J. Hammond, J. Autschbach,
    K. Bhaskaran-Nair, J. Brabec, K. Lopata, S. A. Fischer, S. Krishnamoorthy,
     M. Jacquelin, W. Ma, M. Klemm, O. Villa, Y. Chen, V. Anisimov, F. Aquino,
    S. Hirata, M. T. Hackler, Eric Hermes, L. Jensen, J. E. Moore, J. C. Becca,
      V. Konjkov, T. Risthaus, M. Malagoli, A. Marenich, A. Otero-de-la-Roza,
        J. Mullin, P. Nichols, R. Peverati, J. Pittner, Y. Zhao, P.-D. Fan,
        A. Fonari, M. J. Williamson, R. J. Harrison, J. R. Rehr, M. Dupuis,
     D. Silverstein, D. M. A. Smith, J. Nieplocha, V. Tipparaju, M. Krishnan,
     B. E. Van Kuiken, A. Vazquez-Mayagoitia, M. Swart, Q. Wu, T. Van Voorhis,
     A. A. Auer, M. Nooijen, L. D. Crosby, E. Brown, G. Cisneros, G. I. Fann,
   H. Fruchtl, J. Garza, K. Hirao, R. A. Kendall, J. A. Nichols, K. Tsemekhman,
    K. Wolinski, J. Anchell, D. E. Bernholdt, P. Borowski, T. Clark, D. Clerc,
   H. Dachsel, M. J. O. Deegan, K. Dyall, D. Elwood, E. Glendening, M. Gutowski,
   A. C. Hess, J. Jaffe, B. G. Johnson, J. Ju, R. Kobayashi, R. Kutteh, Z. Lin,
   R. Littlefield, X. Long, B. Meng, T. Nakajima, S. Niu, L. Pollack, M. Rosing,
   K. Glaesemann, G. Sandrone, M. Stave, H. Taylor, G. Thomas, J. H. van Lenthe,
                               A. T. Wong, Z. Zhang.

 Total times  cpu:       42.4s     wall:       45.5s
